Job execution start: Fri 19 Apr 14:33:40 BST 2024
Shared library path: /apps/chemistry/orca/5.0.0/el7:/apps/libraries/openmpi/4.1.1/el7/AVX512/gnu-9.2/lib:/apps/compilers/gnu/9.2.0/lib64:/apps/compilers/gnu/9.2.0/lib:/opt/slurm/23.02.7/el7/lib
Slurm Job ID is: 56479399
Slurm Job name is: orca.hawk.skl.nebjob.sh
ccs[0018,0040]

                                        *****************
                                        * O   R   C   A *
                                        *****************

                                            #,                                       
                                            ###                                      
                                            ####                                     
                                            #####                                    
                                            ######                                   
                                           ########,                                 
                                     ,,################,,,,,                         
                               ,,#################################,,                 
                          ,,##########################################,,             
                       ,#########################################, ''#####,          
                    ,#############################################,,   '####,        
                  ,##################################################,,,,####,       
                ,###########''''           ''''###############################       
              ,#####''   ,,,,##########,,,,          '''####'''          '####       
            ,##' ,,,,###########################,,,                        '##       
           ' ,,###''''                  '''############,,,                           
         ,,##''                                '''############,,,,        ,,,,,,###''
      ,#''                                            '''#######################'''  
     '                                                          ''''####''''         
             ,#######,   #######,   ,#######,      ##                                
            ,#'     '#,  ##    ##  ,#'     '#,    #''#        ######   ,####,        
            ##       ##  ##   ,#'  ##            #'  '#       #        #'  '#        
            ##       ##  #######   ##           ,######,      #####,   #    #        
            '#,     ,#'  ##    ##  '#,     ,#' ,#      #,         ##   #,  ,#        
             '#######'   ##     ##  '#######'  #'      '#     #####' # '####'        



                  #######################################################
                  #                        -***-                        #
                  #          Department of theory and spectroscopy      #
                  #    Directorship and core code : Frank Neese         #
                  #        Max Planck Institute fuer Kohlenforschung    #
                  #                Kaiser Wilhelm Platz 1               #
                  #                 D-45470 Muelheim/Ruhr               #
                  #                      Germany                        #
                  #                                                     #
                  #                  All rights reserved                #
                  #                        -***-                        #
                  #######################################################


                         Program Version 5.0.0 -  RELEASE  -
                                (SVN: $Rev: 19529$)
                ($Date: 2021-06-28 11:36:33 +0200 (Mo, 28 Jun 2021) $)


 With contributions from (in alphabetic order):
   Daniel Aravena         : Magnetic Suceptibility
   Michael Atanasov       : Ab Initio Ligand Field Theory (pilot matlab implementation)
   Alexander A. Auer      : GIAO ZORA, VPT2 properties, NMR spectrum
   Ute Becker             : Parallelization
   Giovanni Bistoni       : ED, misc. LED, open-shell LED, HFLD
   Martin Brehm           : Molecular dynamics
   Dmytro Bykov           : SCF Hessian
   Vijay G. Chilkuri      : MRCI spin determinant printing, contributions to CSF-ICE
   Dipayan Datta          : RHF DLPNO-CCSD density
   Achintya Kumar Dutta   : EOM-CC, STEOM-CC
   Dmitry Ganyushin       : Spin-Orbit,Spin-Spin,Magnetic field MRCI
   Miquel Garcia          : C-PCM Hessian, Gaussian charge scheme
   Yang Guo               : DLPNO-NEVPT2, F12-NEVPT2, CIM, IAO-localization
   Andreas Hansen         : Spin unrestricted coupled pair/coupled cluster methods
   Benjamin Helmich-Paris : MC-RPA, TRAH-SCF, COSX integrals
   Lee Huntington         : MR-EOM, pCC
   Robert Izsak           : Overlap fitted RIJCOSX, COSX-SCS-MP3, EOM
   Marcus Kettner         : VPT2
   Christian Kollmar      : KDIIS, OOCD, Brueckner-CCSD(T), CCSD density, CASPT2, CASPT2-K
   Simone Kossmann        : Meta GGA functionals, TD-DFT gradient, OOMP2, MP2 Hessian
   Martin Krupicka        : Initial AUTO-CI
   Lucas Lang             : DCDCAS
   Marvin Lechner         : AUTO-CI (C++ implementation), FIC-MRCC
   Dagmar Lenk            : GEPOL surface, SMD
   Dimitrios Liakos       : Extrapolation schemes; Compound Job, initial MDCI parallelization
   Dimitrios Manganas     : Further ROCIS development; embedding schemes
   Dimitrios Pantazis     : SARC Basis sets
   Anastasios Papadopoulos: AUTO-CI, single reference methods and gradients
   Taras Petrenko         : DFT Hessian,TD-DFT gradient, ASA, ECA, R-Raman, ABS, FL, XAS/XES, NRVS
   Peter Pinski           : DLPNO-MP2, DLPNO-MP2 Gradient
   Christoph Reimann      : Effective Core Potentials
   Marius Retegan         : Local ZFS, SOC
   Christoph Riplinger    : Optimizer, TS searches, QM/MM, DLPNO-CCSD(T), (RO)-DLPNO pert. Triples
   Tobias Risthaus        : Range-separated hybrids, TD-DFT gradient, RPA, STAB
   Michael Roemelt        : Original ROCIS implementation
   Masaaki Saitow         : Open-shell DLPNO-CCSD energy and density
   Barbara Sandhoefer     : DKH picture change effects
   Avijit Sen             : IP-ROCIS
   Kantharuban Sivalingam : CASSCF convergence, NEVPT2, FIC-MRCI
   Bernardo de Souza      : ESD, SOC TD-DFT
   Georgi Stoychev        : AutoAux, RI-MP2 NMR
   Willem Van den Heuvel  : Paramagnetic NMR
   Boris Wezisla          : Elementary symmetry handling
   Frank Wennmohs         : Technical directorship


 We gratefully acknowledge several colleagues who have allowed us to
 interface, adapt or use parts of their codes:
   Stefan Grimme, W. Hujo, H. Kruse, P. Pracht,  : VdW corrections, initial TS optimization,
                  C. Bannwarth, S. Ehlert          DFT functionals, gCP, sTDA/sTD-DF
   Ed Valeev, F. Pavosevic, A. Kumar             : LibInt (2-el integral package), F12 methods
   Garnet Chan, S. Sharma, J. Yang, R. Olivares  : DMRG
   Ulf Ekstrom                                   : XCFun DFT Library
   Mihaly Kallay                                 : mrcc  (arbitrary order and MRCC methods)
   Jiri Pittner, Ondrej Demel                    : Mk-CCSD
   Frank Weinhold                                : gennbo (NPA and NBO analysis)
   Christopher J. Cramer and Donald G. Truhlar   : smd solvation model
   Lars Goerigk                                  : TD-DFT with DH, B97 family of functionals
   V. Asgeirsson, H. Jonsson                     : NEB implementation
   FAccTs GmbH                                   : IRC, NEB, NEB-TS, DLPNO-Multilevel, CI-OPT
                                                   MM, QMMM, 2- and 3-layer-ONIOM, Crystal-QMMM,
                                                   LR-CPCM, SF, NACMEs, symmetry and pop. for TD-DFT,
                                                   nearIR, NL-DFT gradient (VV10), updates on ESD,
                                                   ML-optimized integration grids
   S Lehtola, MJT Oliveira, MAL Marques          : LibXC Library
   Liviu Ungur et al                             : ANISO software


 Your calculation uses the libint2 library for the computation of 2-el integrals
 For citations please refer to: http://libint.valeyev.net

 Your ORCA version has been built with support for libXC version: 5.1.0
 For citations please refer to: https://tddft.org/programs/libxc/

 This ORCA versions uses:
   CBLAS   interface :  Fast vector & matrix operations
   LAPACKE interface :  Fast linear algebra routines
   SCALAPACK package :  Parallel linear algebra routines
   Shared memory     :  Shared parallel matrices
   BLAS/LAPACK       :  OpenBLAS 0.3.15  USE64BITINT DYNAMIC_ARCH NO_AFFINITY SkylakeX SINGLE_THREADED
        Core in use  :  SkylakeX
   Copyright (c) 2011-2014, The OpenBLAS Project




***************************************
The coordinates will be read from file: react.xyz
***************************************


Your calculation utilizes the DFT-NL dispersion correction.
Cite in your paper:
Vydrov, O. A.; Van Voorhis, T. J. Chem. Phys. 2010, 133, 244103
Hujo, W.; Grimme, S. J. Chem. Theory Comput. 2011, 7, 3866 
   

Your calculation utilizes a Nudged-Elastic-Band implementation
 by V.Asgeirsson, C. Riplinger & H. Jonsson
Please cite in your paper:
 V. Asgeirsson et al., in prep. (2019)
   

================================================================================

----- Orbital basis set information -----
Your calculation utilizes the basis: def2-TZVP
   F. Weigend and R. Ahlrichs, Phys. Chem. Chem. Phys. 7, 3297 (2005).

----- AuxJ basis set information -----
Your calculation utilizes the auxiliary basis: def2/J
   F. Weigend, Phys. Chem. Chem. Phys. 8, 1057 (2006).

================================================================================
                                        WARNINGS
                       Please study these warnings very carefully!
================================================================================


WARNING: Geometry Optimization
  ===> : Switching off AutoStart
         For restart on a previous wavefunction, please use MOREAD

WARNING: Analytic gradients for DFT-NL dispersion can only be done using the self-consistent method,
  ===>   Switching to SCNL

INFO   : the flag for use of the SHARK integral package has been found!

================================================================================
                                       INPUT FILE
================================================================================
NAME = /scratch/c.c21095646/orca.56479399/orca.inp
|  1> !wB97X-V def2-TZVP NEB-TS
|  2> %NEB NEB_END_XYZFILE "prod.xyz" END
|  3> %pal
|  4> nprocs 40
|  5> end
|  6> * xyzfile 0 1 react.xyz
|  7> 
|  8> 
|  9>                          ****END OF INPUT****
================================================================================


------------------------------------------------------------------------------- 
                         Nudged Elastic Band Calculation                       
------------------------------------------------------------------------------- 

Number of images (incl. end points)     ....  10
Number of intermediate images           ....  8
Number of optimized images              ....  8
Optimization of end points before NEB   ....  NO
Use existing gbw files for MO input     ....  NO
Number of atoms                         ....  17
Number of (active) degrees of freedom   ....  51
Constrained atoms                       ....  None

-----------------------------------------
  REACTANT (ANGSTROEM)
-----------------------------------------
C      9.422540     5.940660    12.129660 
C      9.615690     5.250430    13.301170 
C      9.512770     7.459540    13.718470 
C      9.673860     6.226190    14.326800 
C      9.476000     8.818170    14.231860 
O      9.372450     9.810260    13.511130 
O      9.361750     7.273920    12.369530 
H      9.313570     5.648030    11.094290 
H      9.702990     4.177580    13.401890 
H      9.817720     6.045920    15.383150 
C      9.570420     8.954500    15.746910 
C      9.504120    10.400080    16.210760 
H     10.516290     8.514240    16.081240 
H      8.742550     8.397080    16.199290 
H     10.334190    10.983290    15.798610 
H      9.558540    10.452480    17.302510 
H      8.569680    10.873680    15.891930 

-----------------------------------------
  PRODUCT (ANGSTROEM)
-----------------------------------------
C      9.584850     5.220850    13.979910 
C      9.577710     5.491550    12.632400 
C      9.536260     7.408030    13.801990 
C      9.545600     6.901210    12.515880 
C      9.505230     8.775940    14.278880 
O      9.462100     9.737600    13.510920 
O      9.561400     6.373460    14.698050 
H      9.604860     4.308090    14.559620 
H      9.593180     4.763430    11.833390 
H      9.531380     7.492680    11.609900 
C      9.534730     8.963250    15.789360 
C      9.483950    10.427540    16.193050 
H     10.455450     8.514520    16.178570 
H      8.676570     8.440370    16.225890 
H     10.328150    10.982160    15.769960 
H      9.522200    10.525420    17.282240 
H      8.561500    10.899940    15.839200 



----------------------
NEB settings
----------------------
Method type                             ....  climbing image
Threshold for climbing image            ....  2.00e-02 Eh/Bohr 
Free endpoints                          ....  off 
Tangent type                            ....  improved 
Number of intermediate images           ....  8 
Number of images free to move           ....  8 
Spring type for image distribution      ....  distance between adjacent images 
Spring constant                         ....  energy weighted (0.0100 -to- 0.1000) Eh/Bohr^2 
Spring force perp. to the path          ....  none 
Generation of initial path              ....  image dependent pair potential 
Initial path via TS guess               ....  off 

Minimization of RMSD: Rotation          ....  always 
Minimization of RMSD: Translation type  ....  centroid 
Center fixed to origin                  ....  true 
Remove external force                   ....  true 

Reparametrization of the path           ....  off 
Convergence thresholds:
Convergence monitored for               ....  all images
Scaling factor                          ....  10.00

Convergence parameters for regular images:
               Max(|Fp|)                ....  2.00e-02 Eh/Bohr
               RMS(Fp)                  ....  1.00e-02 Eh/Bohr

Convergence parameters for climbing image:
               Max(|F|)                 ....  2.00e-03 Eh/Bohr
               RMS(F)                   ....  1.00e-03 Eh/Bohr
Optimization method:
Method                                  ....  L-BFGS
Max. iterations                         ....  500 
Step size                               ....  1.00 
Maximum allowed step size               ....  0.10 Bohr

LBFGS parameters: 
               Memory                   ....  20 
               Initial step size        ....  0.0010 
               Estimate curvature       ....  YES 
               Reset on maxmove         ....  YES 
               Reparam. on reset        ....  NO 
Generation of  the initial path:
Minimize RMSD between reactant and product configurations     .... done
       RMSD before minimization         ....  1.8272 Bohr
       RMSD after minimization          ....  1.7901 Bohr
Performing linear interpolation         ....  done
Interpolation using                     ....  IDPP (Image Dependent Pair Potential)
IDPP-Settings:
       Remove global transl. and rot.   ...   true
       Convergence tolerance            ....  0.0100 1/Ang.^3
       Max. numer of iterations         ....    7000
       Spring constant                  ....  1.0000 1/Ang.^4
       Time step                        ....  0.0100 fs
       Max. movement per iteration      ....  0.0500 Ang.
       Full print                       ....  false 
idpp initial path generation successfully converged in 99 iterations
Displacement along initial path:             13.9681 Bohr
Writing initial trajectory to file      ....  /scratch/c.c21095646/orca.56479399/orca_initial_path_trj.xyz



----------------------
NEB OPTIMIZATION      
----------------------

Following output files will be written:
Energy profile during opt. written to    ....  /scratch/c.c21095646/orca.56479399/orca.interp
Optimization log-file                    ....  /scratch/c.c21095646/orca.56479399/orca.NEB.log
Current trajectory will be written to    ....  /scratch/c.c21095646/orca.56479399/orca_MEP_trj.xyz
       and to allxyz file                ....  /scratch/c.c21095646/orca.56479399/orca_MEP.allxyz
       and individual images to xyz file ....  /scratch/c.c21095646/orca.56479399/orca_im{NIm}.xyz
Trajectory history will be written to    ....  /scratch/c.c21095646/orca.56479399/orca_MEP_ALL_trj.xyz
Converged CI will be written to          ....  /scratch/c.c21095646/orca.56479399/orca_NEB-CI_converged.xyz
Converged TS will be written to          ....  /scratch/c.c21095646/orca.56479399/orca_NEB-TS_converged.xyz

Single point energy and gradient calculation of reactant and
product configurations (have to be performed only once)
Properties of fixed NEB end points:
               Reactant:
                         E               ....   -422.020014 Eh
                         RMS(F)          ....      0.008788 Eh/Bohr
                         MAX(|F|)        ....      0.034443 Eh/Bohr
      Warning: Reactant seems to be less converged than convergence tolerances.
               You might want to use free end NEB or preopt_ends true.
               Product:
                         E               ....   -422.022099 Eh
                         RMS(F)          ....      0.008784 Eh/Bohr
                         MAX(|F|)        ....      0.025451 Eh/Bohr
      Warning: Product seems to be less converged than convergence tolerances.
               You might want to use free end NEB or preopt_ends true.



Starting iterations:

Optim.  Iteration  HEI  E(HEI)-E(0)  max(|Fp|)   RMS(Fp)    dS
Switch-on CI threshold               0.020000 
   LBFGS     0      5    0.022287    0.069160   0.013779  13.9681       
   LBFGS     1      4    0.014720    0.026094   0.006183  13.9543       
   LBFGS     2      4    0.013234    0.016685   0.004190  13.9615       

Image  4 will be converted to a climbing image in the next iteration (max(|Fp|) < 0.0200) 

Optim.  Iteration  CI   E(CI)-E(0)   max(|Fp|)   RMS(Fp)    dS     max(|FCI|)   RMS(FCI)
Convergence thresholds               0.020000   0.010000            0.002000    0.001000 
   LBFGS     3      4    0.012762    0.033055   0.006054  13.9842    0.030666    0.007689       
   LBFGS     4      4    0.012565    0.041725   0.006500  14.0119    0.039153    0.008720       
   LBFGS     5      4    0.010902    0.016703   0.003623  14.0077    0.014941    0.004507       
   LBFGS     6      4    0.010706    0.017072   0.002850  14.0116    0.016199    0.003708       
   LBFGS     7      4    0.010727    0.013962   0.003756  14.0278    0.013995    0.005097       
   LBFGS     8      4    0.010349    0.013091   0.003333  14.0251    0.012330    0.004338       
   LBFGS     9      4    0.010288    0.012950   0.002986  14.0262    0.013063    0.004110       
   LBFGS    10      5    0.010308    0.012926   0.003149  14.0294    0.012925    0.004133       
   LBFGS    11      5    0.010105    0.015895   0.003537  14.0390    0.011622    0.003978       
   LBFGS    12      5    0.009721    0.008307   0.001717  14.0369    0.004816    0.001567       
   LBFGS    13      5    0.009675    0.005208   0.001078  14.0381    0.003633    0.001115       
   LBFGS    14      5    0.009811    0.007327   0.001950  14.0433    0.007377    0.002575       
   LBFGS    15      5    0.009784    0.006531   0.001881  14.0478    0.006232    0.002447       
   LBFGS    16      5    0.010530    0.034847   0.006967  14.0542    0.023542    0.007721       
   LBFGS    17      5    0.009522    0.004335   0.000644  14.0497    0.002550    0.000783       
   LBFGS    18      5    0.009494    0.001545   0.000427  14.0513    0.001551    0.000490       

                                .--------------------.
          ----------------------| CI-NEB convergence |-------------------------
          Item                value                   Tolerance       Converged
          ---------------------------------------------------------------------
          RMS(Fp)             0.0004274347            0.0100000000      YES
          MAX(|Fp|)           0.0015447787            0.0200000000      YES
          RMS(FCI)            0.0004903328            0.0010000000      YES
          MAX(|FCI|)          0.0015509189            0.0020000000      YES
          ---------------------------------------------------------------------

The elastic band and climbing image have converged successfully to a MEP in 18 iterations!


                    *********************H U R R A Y*********************
                    ***        THE NEB OPTIMIZATION HAS CONVERGED     ***
                    *****************************************************



---------------------------------------------------------------
                         PATH SUMMARY              
---------------------------------------------------------------
All forces in Eh/Bohr.

Image Dist.(Ang.)    E(Eh)   dE(kcal/mol)  max(|Fp|)  RMS(Fp)
  0     0.000    -422.02001      0.00       0.03447   0.00877
  1     1.570    -422.01800      1.26       0.00136   0.00039
  2     2.335    -422.01434      3.56       0.00154   0.00047
  3     2.918    -422.01184      5.13       0.00143   0.00045
  4     3.433    -422.01051      5.96       0.00125   0.00045 <= CI
  5     3.944    -422.01052      5.96       0.00150   0.00047
  6     4.398    -422.01175      5.19       0.00152   0.00052
  7     4.906    -422.01422      3.64       0.00147   0.00052
  8     5.621    -422.01846      0.98       0.00137   0.00056
  9     7.436    -422.02210     -1.31       0.02558   0.00876

Straight line distance between images along the path:
        D( 0- 1) =   1.5702 Ang.
        D( 1- 2) =   0.7652 Ang.
        D( 2- 3) =   0.5823 Ang.
        D( 3- 4) =   0.5154 Ang.
        D( 4- 5) =   0.5114 Ang.
        D( 5- 6) =   0.4537 Ang.
        D( 6- 7) =   0.5079 Ang.
        D( 7- 8) =   0.7150 Ang.
        D( 8- 9) =   1.8146 Ang.

---------------------------------------------------------------
               INFORMATION ABOUT SADDLE POINT     
---------------------------------------------------------------

Climbing image                            ....  4 
Energy                                    ....  -422.01051003 Eh
Max. abs. force                           ....  1.2190e-03 Eh/Bohr

-----------------------------------------
  SADDLE POINT (ANGSTROEM)
-----------------------------------------
C     -0.665459    -2.070061    -2.069211 
C      0.310046    -2.705098    -1.381109 
C      0.166756    -0.587069    -0.701451 
C      0.854409    -1.730899    -0.477156 
C      0.325533     0.803624    -0.138282 
O      0.986759     1.621326    -0.729930 
O     -0.768234    -0.772235    -1.669687 
H     -1.350055    -2.384842    -2.841132 
H      0.615240    -3.734139    -1.499255 
H      1.664381    -1.859976     0.225380 
C     -0.355587     1.090619     1.180392 
C     -0.133257     2.507617     1.691968 
H     -0.000109     0.340429     1.899006 
H     -1.423389     0.870986     1.046527 
H      0.929518     2.706010     1.850470 
H     -0.657623     2.658295     2.639552 
H     -0.498929     3.245412     0.973918 

-----------------------------------------
  FORCES (Eh/Bohr)
-----------------------------------------
C      0.000891    -0.000283     0.000756 
C     -0.000685     0.001072    -0.000027 
C      0.001219    -0.000768    -0.000067 
C     -0.000345    -0.000000     0.000066 
C      0.000039     0.001173    -0.000235 
O     -0.001120    -0.000002    -0.000499 
O      0.000606     0.000168     0.000483 
H     -0.000277     0.000680    -0.000054 
H     -0.000253     0.000056     0.000137 
H      0.000010    -0.000440     0.000241 
C     -0.000034     0.000027     0.000232 
C      0.000023    -0.000098    -0.000128 
H      0.000013    -0.000421    -0.000187 
H      0.000114    -0.000307    -0.000403 
H     -0.000129    -0.000390    -0.000273 
H      0.000122    -0.000263    -0.000344 
H      0.000062    -0.000410    -0.000107 

-----------------------------------------
  UNIT TANGENT
-----------------------------------------
C     -0.117556    -0.037252     0.156557 
C      0.048832     0.014127    -0.061581 
C      0.047169    -0.015920     0.025441 
C      0.163244     0.029784    -0.155528 
C      0.084164    -0.039621     0.070265 
O      0.317132    -0.132475     0.239379 
O     -0.134714    -0.059694     0.228150 
H     -0.221172    -0.055064     0.263252 
H      0.091000     0.039716    -0.151005 
H      0.290678     0.067815    -0.312056 
C     -0.111388     0.037339    -0.059869 
C     -0.031657     0.006066    -0.011554 
H     -0.294657     0.004009    -0.016236 
H     -0.103410     0.147332    -0.219915 
H     -0.042933    -0.118309     0.152534 
H     -0.153711     0.062454    -0.094946 
H      0.168979     0.049693    -0.052889 
 => Unit tangent is an approximation to the TS mode at the saddle point

Next a TS optimization is performed on the CI from the NEB run.

         *************************************************************
         *                       TS OPTIMIZATION                     *
         *************************************************************


Following output files will be written:
Converged TS will be written to          ....  /scratch/c.c21095646/orca.56479399/orca_NEB-TS_converged.xyz
                                         ....  /scratch/c.c21095646/orca.56479399/orca.xyz
Current trajectory will be written to    ....  /scratch/c.c21095646/orca.56479399/orca_trj.xyz
Initial Hessian will be stored in        ....  /scratch/c.c21095646/orca.56479399/orca.appr.hess
Geometry optimization settings:
Update method            Update   .... Bofill
Choice of coordinates    CoordSys .... Z-matrix Internals
Initial Hessian          InHess   .... Read

Convergence Tolerances:
Energy Change            TolE     ....  5.0000e-06 Eh
Max. Gradient            TolMAXG  ....  3.0000e-04 Eh/bohr
RMS Gradient             TolRMSG  ....  1.0000e-04 Eh/bohr
Max. Displacement        TolMAXD  ....  4.0000e-03 bohr
RMS Displacement         TolRMSD  ....  2.0000e-03 bohr
Strict Convergence                ....  False
------------------------------------------------------------------------------
                        ORCA OPTIMIZATION COORDINATE SETUP
------------------------------------------------------------------------------

The optimization will be done in new redundant internal coordinates
Making redundant internal coordinates   ...  (new redundants) done
Following TS mode number                ...     0
TS-active-atoms for coordinate setup... 5 7 9 
Evaluating the initial hessian          ... (Reading Exact Hessian)...  
InHessName: /scratch/c.c21095646/orca.56479399/orca.appr.hess	The file </scratch/c.c21095646/orca.56479399/orca.appr.hess> is opened as a .hess file
done
done
Diagonalizing the Hessian               .... done
Dimension of the hessian                .... 83
Lowest eigenvalues of the non projected Hessian:
 -0.008490265 -0.000000000 -0.000000000 -0.000000000 -0.000000000
done
Evaluating the coordinates              ...  done
Calculating the B-matrix                .... done
Calculating the G-matrix                .... done
Diagonalizing the G-matrix              .... done
The first mode is                       ....   38
The number of degrees of freedom        ....   45

    -----------------------------------------------------------------
                    Redundant Internal Coordinates


    -----------------------------------------------------------------
         Definition                    Initial Value    d2E/dq (diagonal element)
    -----------------------------------------------------------------
      1. B(C   1,C   0)                  1.3522         0.628645   
      2. B(C   3,C   2)                  1.3533         0.628049   
      3. B(C   3,C   1)                  1.4362         0.477439   
      4. B(C   4,C   2)                  1.5088         0.311331   
      5. B(O   5,C   2)                  2.3559         0.116554   
      6. B(O   5,C   4)                  1.2066         0.471188   
      7. B(O   6,C   2)                  1.3587         0.557702   
      8. B(O   6,C   0)                  1.3618         0.553013   
      9. B(H   7,C   0)                  1.0787         0.375218   
     10. B(H   8,C   1)                  1.0798         0.373821   
     11. B(H   9,C   3)                  1.0799         0.373711   
     12. B(C  10,C   4)                  1.5117         0.312169   
     13. B(C  10,O   5)                  2.3943         0.127700   
     14. B(C  11,C  10)                  1.5228         0.363272   
     15. B(C  11,O   5)                  2.8117         0.038638   
     16. B(H  12,C  10)                  1.0980         0.349118   
     17. B(H  13,C  10)                  1.0983         0.349952   
     18. B(H  14,C  11)                  1.0927         0.356276   
     19. B(H  15,C  11)                  1.0934         0.355597   
     20. B(H  16,C  11)                  1.0925         0.356838   
     21. A(O   6,C   0,H   7)          116.1130         0.218963   
     22. A(C   1,C   0,H   7)          133.2327         0.220889   
     23. A(C   1,C   0,O   6)          110.6542         0.161756   
     24. A(C   3,C   1,H   8)          127.4577         0.211504   
     25. A(C   0,C   1,C   3)          105.9730         0.142847   
     26. A(C   0,C   1,H   8)          126.5680         0.214629   
     27. A(C   3,C   2,C   4)          131.5834         0.245624   
     28. A(C   3,C   2,O   6)          110.6459         0.164638   
     29. A(C   4,C   2,O   6)          117.6481         0.243243   
     30. A(C   2,C   3,H   9)          126.1521         0.214884   
     31. A(C   1,C   3,H   9)          127.7831         0.211556   
     32. A(C   1,C   3,C   2)          106.0462         0.143853   
     33. A(C   2,C   4,C  10)          116.9480         0.229502   
     34. A(C   2,C   4,O   5)          119.9533         0.145835   
     35. A(O   5,C   4,C  10)          123.0922         0.134044   
     36. A(C   0,O   6,C   2)          106.6794         0.177582   
     37. A(H  12,C  10,H  13)          104.9452         0.039641   
     38. A(C  11,C  10,H  13)          111.6510         0.101777   
     39. A(C   4,C  10,H  13)          107.0832         0.087757   
     40. A(C  11,C  10,H  12)          111.6310         0.101819   
     41. A(C   4,C  10,H  12)          107.1775         0.088410   
     42. A(C   4,C  10,C  11)          113.8234         0.061455   
     43. A(H  15,C  11,H  16)          108.4211         0.115089   
     44. A(H  14,C  11,H  16)          107.3531         0.114921   
     45. A(C  10,C  11,H  16)          111.0213         0.222797   
     46. A(H  14,C  11,H  15)          108.4033         0.115303   
     47. A(C  10,C  11,H  15)          110.4470         0.221281   
     48. A(C  10,C  11,H  14)          111.0802         0.222891   
     49. D(C   3,C   1,C   0,O   6)      0.3039         0.009402   
     50. D(H   8,C   1,C   0,H   7)      0.8221         0.017996   
     51. D(H   8,C   1,C   0,O   6)   -179.3091         0.010474   
     52. D(C   3,C   1,C   0,H   7)   -179.5649         0.015369   
     53. D(H   9,C   3,C   2,O   6)    178.8155         0.009542   
     54. D(H   9,C   3,C   2,C   4)      3.0308         0.012884   
     55. D(H   9,C   3,C   1,C   0)   -178.8513         0.009307   
     56. D(C   2,C   3,C   1,H   8)    179.2504         0.009553   
     57. D(C   1,C   3,C   2,O   6)      0.2903         0.007565   
     58. D(C   2,C   3,C   1,C   0)     -0.3580         0.008074   
     59. D(C   1,C   3,C   2,C   4)   -175.4944         0.010339   
     60. D(H   9,C   3,C   1,H   8)      0.7572         0.011755   
     61. D(C  10,C   4,C   2,C   3)    -85.1864         0.004079   
     62. D(O   5,C   4,C   2,O   6)    -81.6353         0.002754   
     63. D(O   5,C   4,C   2,C   3)     93.9112         0.003330   
     64. D(C  10,C   4,C   2,O   6)     99.2671         0.003700   
     65. D(C   0,O   6,C   2,C   4)    176.3316         0.009480   
     66. D(C   0,O   6,C   2,C   3)     -0.1099         0.007887   
     67. D(C   2,O   6,C   0,H   7)    179.7614         0.010773   
     68. D(C   2,O   6,C   0,C   1)     -0.1321         0.009111   
     69. D(H  13,C  10,C   4,O   5)    124.0268         0.027544   
     70. D(H  13,C  10,C   4,C   2)    -56.9064         0.026624   
     71. D(H  12,C  10,C   4,O   5)   -123.8008         0.027466   
     72. D(H  12,C  10,C   4,C   2)     55.2659         0.026563   
     73. D(C  11,C  10,C   4,O   5)      0.1351         0.021722   
     74. D(C  11,C  10,C   4,C   2)    179.2018         0.021631   
     75. D(H  15,C  11,C  10,C   4)    179.3499         0.031327   
     76. D(H  14,C  11,C  10,H  13)    178.2850         0.032460   
     77. D(H  14,C  11,C  10,H  12)     61.1618         0.032457   
     78. D(H  15,C  11,C  10,H  12)    -59.1571         0.032492   
     79. D(H  14,C  11,C  10,C   4)    -60.3311         0.031340   
     80. D(H  16,C  11,C  10,H  13)    -62.3365         0.032461   
     81. D(H  16,C  11,C  10,H  12)   -179.4598         0.032460   
     82. D(H  16,C  11,C  10,C   4)     59.0473         0.031211   
     83. D(H  15,C  11,C  10,H  13)     57.9661         0.032491   
    -----------------------------------------------------------------

Number of atoms                         .... 17
Number of degrees of freedom            .... 83

         *************************************************************
         *                GEOMETRY OPTIMIZATION CYCLE   1            *
         *************************************************************


           ************************************************************
           *        Program running with 40 parallel MPI-processes    *
           *              working on a common directory               *
           ************************************************************
------------------------------------------------------------------------------
                           ORCA GTO INTEGRAL CALCULATION
                           -- RI-GTO INTEGRALS CHOSEN --
------------------------------------------------------------------------------
------------------------------------------------------------------------------
                   ___                                                        
                  /   \      - P O W E R E D   B Y -                         
                 /     \                                                     
                 |  |  |   _    _      __       _____    __    __             
                 |  |  |  | |  | |    /  \     |  _  \  |  |  /  |          
                  \  \/   | |  | |   /    \    | | | |  |  | /  /          
                 / \  \   | |__| |  /  /\  \   | |_| |  |  |/  /          
                |  |  |   |  __  | /  /__\  \  |    /   |      \           
                |  |  |   | |  | | |   __   |  |    \   |  |\   \          
                \     /   | |  | | |  |  |  |  | |\  \  |  | \   \       
                 \___/    |_|  |_| |__|  |__|  |_| \__\ |__|  \__/        
                                                                              
                      - O R C A' S   B I G   F R I E N D -                    
                                      &                                       
                       - I N T E G R A L  F E E D E R -                       
                                                                              
 v1 FN, 2020, v2 2021                                                         
------------------------------------------------------------------------------


Reading SHARK input file /scratch/c.c21095646/orca.56479399/orca.SHARKINP.tmp ... ok
----------------------
SHARK INTEGRAL PACKAGE
----------------------

Number of atoms                             ...     17
Number of basis functions                   ...    327
Number of shells                            ...    131
Maximum angular momentum                    ...      3
Integral batch strategy                     ... SHARK/LIBINT Hybrid
RI-J (if used) integral strategy            ... SPLIT-RIJ (Revised 2003 algorithm where possible)
Printlevel                                  ...      1
Contraction scheme used                     ... SEGMENTED contraction
Coulomb Range Separation                    ... NOT USED
Exchange Range Separation                   ... Long Range
   Mu parameter                             ...  0.300000
   Scaling (regular/separated)              ...  0.167000  0.833000
Finite Nucleus Model                        ... NOT USED
Auxiliary Coulomb fitting basis             ... AVAILABLE
   # of basis functions in Aux-J            ...    529
   # of shells in Aux-J                     ...    175
   Maximum angular momentum in Aux-J        ...      4
Auxiliary J/K fitting basis                 ... NOT available
Auxiliary Correlation fitting basis         ... NOT available
Auxiliary 'external' fitting basis          ... NOT available
Integral threshold                          ...     2.500000e-11
Primitive cut-off                           ...     2.500000e-12
Primitive pair pre-selection threshold      ...     2.500000e-12

Calculating pre-screening integrals         ... done (  0.1 sec) Dimension = 131
Organizing shell pair data                  ... done (  0.1 sec)
Shell pair information
Total number of shell pairs                 ...      8646
Shell pairs after pre-screening             ...      7546
Total number of primitive shell pairs       ...     26328
Primitive shell pairs kept                  ...     16944
          la=0 lb=0:   2005 shell pairs
          la=1 lb=0:   2133 shell pairs
          la=1 lb=1:    576 shell pairs
          la=2 lb=0:   1092 shell pairs
          la=2 lb=1:    575 shell pairs
          la=2 lb=2:    162 shell pairs
          la=3 lb=0:    526 shell pairs
          la=3 lb=1:    285 shell pairs
          la=3 lb=2:    150 shell pairs
          la=3 lb=3:     42 shell pairs

Calculating one electron integrals          ... done (  0.0 sec)
Calculating RI/J V-Matrix + Cholesky decomp.... done (  0.1 sec)
Calculating Nuclear repulsion               ... done (  0.0 sec) ENN=    422.407070129992 Eh

SHARK setup successfully completed in   0.6 seconds

Maximum memory used throughout the entire GTOINT-calculation: 14.2 MB


           ************************************************************
           *        Program running with 40 parallel MPI-processes    *
           *              working on a common directory               *
           ************************************************************
-------------------------------------------------------------------------------
                                 ORCA SCF
-------------------------------------------------------------------------------

------------
SCF SETTINGS
------------
Hamiltonian:
 Density Functional     Method          .... DFT(GTOs)
 Exchange Functional    Exchange        .... WB97X-V
 Correlation Functional Correlation     .... WB97X-V
 Gradients option       PostSCFGGA      .... off
 Hybrid DFT is turned on
   Fraction HF Exchange ScalHFX         ....  0.167000
   Scaling of DF-GGA-X  ScalDFX         ....  0.000000
   Scaling of DF-GGA-C  ScalDFC         ....  1.000000
   Scaling of DF-LDA-C  ScalLDAC        ....  1.000000
   Perturbative correction              ....  0.000000
   Density functional embedding theory  .... OFF
 Long-range corrected/Screened/Range-Separated Hybrid DFT is turned on
   Amount of maximum screened exact exchange              ....  0.833000
   Range separation parameter mu (erf(mu*r12)/r12)        ....  0.300000
   NL short-range parameter             ....  6.000000
   NL long-range parameter              ....  0.010000
 RI-approximation to the Coulomb term is turned on
   Number of AuxJ basis functions       .... 529
   RIJ-COSX (HFX calculated with COS-X)).... on


General Settings:
 Integral files         IntName         .... /scratch/c.c21095646/orca.56479399/orca
 Hartree-Fock type      HFTyp           .... RHF
 Total Charge           Charge          ....    0
 Multiplicity           Mult            ....    1
 Number of Electrons    NEL             ....   66
 Basis Dimension        Dim             ....  327
 Nuclear Repulsion      ENuc            ....    422.4070701300 Eh

Convergence Acceleration:
 DIIS                   CNVDIIS         .... on
   Start iteration      DIISMaxIt       ....    12
   Startup error        DIISStart       ....  0.200000
   # of expansion vecs  DIISMaxEq       ....     5
   Bias factor          DIISBfac        ....   1.050
   Max. coefficient     DIISMaxC        ....  10.000
 Trust-Rad. Augm. Hess. CNVTRAH         .... auto
   Auto Start mean grad. ratio tolernc. ....  1.125000
   Auto Start start iteration           ....     1
   Auto Start num. interpolation iter.  ....    10
   Max. Number of Micro iterations      ....    16
   Max. Number of Macro iterations      .... Maxiter - #DIIS iter
   Number of Davidson start vectors     ....     2
   Converg. threshold I  (grad. norm)   ....   1.000e-05
   Converg. threshold II (energy diff.) ....   1.000e-08
   Grad. Scal. Fac. for Micro threshold ....   0.100
   Minimum threshold for Micro iter.    ....   0.010
   NR start threshold (gradient norm)   ....   0.001
   Initial trust radius                 ....   0.400
   Minimum AH scaling param. (alpha)    ....   1.000
   Maximum AH scaling param. (alpha)    .... 1000.000
   Orbital update algorithm             .... Taylor
   White noise on init. David. guess    .... on
   Maximum white noise                  ....   0.010
   Quad. conv. algorithm                .... NR
 SOSCF                  CNVSOSCF        .... on
   Start iteration      SOSCFMaxIt      ....   150
   Startup grad/error   SOSCFStart      ....  0.003300
 Level Shifting         CNVShift        .... on
   Level shift para.    LevelShift      ....    0.2500
   Turn off err/grad.   ShiftErr        ....    0.0010
 Zerner damping         CNVZerner       .... off
 Static damping         CNVDamp         .... on
   Fraction old density DampFac         ....    0.7000
   Max. Damping (<1)    DampMax         ....    0.9800
   Min. Damping (>=0)   DampMin         ....    0.0000
   Turn off err/grad.   DampErr         ....    0.1000
 Fernandez-Rico         CNVRico         .... off

SCF Procedure:
 Maximum # iterations   MaxIter         ....   125
 SCF integral mode      SCFMode         .... Direct
   Integral package                     .... SHARK and LIBINT hybrid scheme
 Reset frequency        DirectResetFreq ....    20
 Integral Threshold     Thresh          ....  2.500e-11 Eh
 Primitive CutOff       TCut            ....  2.500e-12 Eh

Convergence Tolerance:
 Convergence Check Mode ConvCheckMode   .... Total+1el-Energy
 Convergence forced     ConvForced      .... 0
 Energy Change          TolE            ....  1.000e-08 Eh
 1-El. energy change                    ....  1.000e-05 Eh
 Orbital Gradient       TolG            ....  1.000e-05
 Orbital Rotation angle TolX            ....  1.000e-05
 DIIS Error             TolErr          ....  5.000e-07


Diagonalization of the overlap matrix:
Smallest eigenvalue                        ... 3.361e-05
Time for diagonalization                   ...    0.016 sec
Threshold for overlap eigenvalues          ... 1.000e-08
Number of eigenvalues below threshold      ... 0
Time for construction of square roots      ...    0.021 sec
Total time needed                          ...    0.050 sec

---------------------
INITIAL GUESS: MOREAD
---------------------
Guess MOs are being read from file: /scratch/c.c21095646/orca.56479399/orca.gbw
Input Geometry matches current geometry (good)
Input basis set matches current basis set (good)
MOs were renormalized
MOs were reorthogonalized (Cholesky)
                      ------------------
                      INITIAL GUESS DONE (   0.0 sec)
                      ------------------
-------------------
DFT GRID GENERATION
-------------------

General Integration Accuracy     IntAcc      ... 4.388
Radial Grid Type                 RadialGrid  ... OptM3 with GC (2021)
Angular Grid (max. ang.)         AngularGrid ... 4 (Lebedev-302)
Angular grid pruning method      GridPruning ... 4 (adaptive)
Weight generation scheme         WeightScheme... Becke
Basis function cutoff            BFCut       ... 1.0000e-11
Integration weight cutoff        WCut        ... 1.0000e-14
Angular grids for H and He will be reduced by one unit
Partially contracted basis set               ... off
Rotationally invariant grid construction     ... off

Total number of grid points                  ...    80165
Total number of batches                      ...     1261
Average number of points per batch           ...       63
Average number of grid points per atom       ...     4716

------------------
NL GRID GENERATION
------------------

General Integration Accuracy     IntAcc      ... 4.004
Radial Grid Type                 RadialGrid  ... OptM3 with GC (2021)
Angular Grid (max. ang.)         AngularGrid ... 2 (Lebedev-110)
Angular grid pruning method      GridPruning ... 4 (adaptive)
Weight generation scheme         WeightScheme... Becke
Basis function cutoff            BFCut       ... 1.0000e-10
Integration weight cutoff        WCut        ... 1.0000e-14
Angular grids for H and He will be reduced by one unit
Partially contracted basis set               ... off
Rotationally invariant grid construction     ... off

Total number of grid points                  ...    25485
Total number of batches                      ...      408
Average number of points per batch           ...       62
Average number of grid points per atom       ...     1499
Time for grid setup =    0.572 sec

--------------------
COSX GRID GENERATION
--------------------

GRIDX 1
-------
General Integration Accuracy     IntAcc      ... 3.816
Radial Grid Type                 RadialGrid  ... OptM3 with GC (2021)
Angular Grid (max. ang.)         AngularGrid ... 1 (Lebedev-50)
Angular grid pruning method      GridPruning ... 4 (adaptive)
Weight generation scheme         WeightScheme... Becke
Basis function cutoff            BFCut       ... 1.0000e-11
Integration weight cutoff        WCut        ... 1.0000e-14
Angular grids for H and He will be reduced by one unit
Partially contracted basis set               ... on
Rotationally invariant grid construction     ... off

Total number of grid points                  ...    10243
Total number of batches                      ...      169
Average number of points per batch           ...       60
Average number of grid points per atom       ...      603
UseSFitting                                  ... on

GRIDX 2
-------
General Integration Accuracy     IntAcc      ... 4.020
Radial Grid Type                 RadialGrid  ... OptM3 with GC (2021)
Angular Grid (max. ang.)         AngularGrid ... 2 (Lebedev-110)
Angular grid pruning method      GridPruning ... 4 (adaptive)
Weight generation scheme         WeightScheme... Becke
Basis function cutoff            BFCut       ... 1.0000e-11
Integration weight cutoff        WCut        ... 1.0000e-14
Angular grids for H and He will be reduced by one unit
Partially contracted basis set               ... on
Rotationally invariant grid construction     ... off

Total number of grid points                  ...    22408
Total number of batches                      ...      360
Average number of points per batch           ...       62
Average number of grid points per atom       ...     1318
UseSFitting                                  ... on

GRIDX 3
-------
General Integration Accuracy     IntAcc      ... 4.338
Radial Grid Type                 RadialGrid  ... OptM3 with GC (2021)
Angular Grid (max. ang.)         AngularGrid ... 3 (Lebedev-194)
Angular grid pruning method      GridPruning ... 4 (adaptive)
Weight generation scheme         WeightScheme... Becke
Basis function cutoff            BFCut       ... 1.0000e-11
Integration weight cutoff        WCut        ... 1.0000e-14
Angular grids for H and He will be reduced by one unit
Partially contracted basis set               ... on
Rotationally invariant grid construction     ... off

Total number of grid points                  ...    49179
Total number of batches                      ...      778
Average number of points per batch           ...       63
Average number of grid points per atom       ...     2893
UseSFitting                                  ... on

Time for X-Grid setup             =    0.561 sec

--------------
SCF ITERATIONS
--------------
ITER       Energy         Delta-E        Max-DP      RMS-DP      [F,P]     Damp
               ***  Starting incremental Fock matrix formation  ***
                      *** Initiating the SOSCF procedure ***
                      *** Re-Reading the Fockian *** 
                      *** Removing any level shift *** 
ITER      Energy       Delta-E        Grad      Rot      Max-DP    RMS-DP
  0   -422.01052555 -422.0105255524  0.000001  0.000001  0.000020  0.000000
               *** Restarting incremental Fock matrix formation ***
                  ***Gradient check signals convergence***
              ***Rediagonalizing the Fockian in SOSCF/NRSCF***

               *****************************************************
               *                     SUCCESS                       *
               *           SCF CONVERGED AFTER   1 CYCLES          *
               *****************************************************

Old exchange energy                            =    -17.911010839 Eh
New exchange energy                            =    -17.910995320 Eh
Exchange energy change after final integration =      0.000015519 Eh
Total energy after final integration           =   -422.010510033 Eh
Final COS-X integration done in                =     1.975 sec

----------------
TOTAL SCF ENERGY
----------------

Total Energy       :         -422.01051003 Eh          -11483.48979 eV

Components:
Nuclear Repulsion  :          422.40707013 Eh           11494.28074 eV
Electronic Energy  :         -844.41758016 Eh          -22977.77052 eV
One Electron Energy:        -1409.31275494 Eh          -38349.34971 eV
Two Electron Energy:          564.89517478 Eh           15371.57918 eV
Max COSX asymmetry :            0.00000085 Eh               0.00002 eV

Virial components:
Potential Energy   :         -842.41228258 Eh          -22923.20360 eV
Kinetic Energy     :          420.40177255 Eh           11439.71381 eV
Virial Ratio       :            2.00382667


DFT components:
N(Alpha)           :       33.000004038420 electrons
N(Beta)            :       33.000004038420 electrons
N(Total)           :       66.000008076840 electrons
E(X)               :      -37.660536038405 Eh       
E(C)               :       -2.757224482500 Eh       
NL Energy, E(C,NL) :        0.254109980104 Eh       
E(XC)              :      -40.163650540801 Eh       
DFET-embed. en.    :        0.000000000000 Eh       

---------------
SCF CONVERGENCE
---------------

  Last Energy change         ...   -4.1155e-11  Tolerance :   1.0000e-08
  Last MAX-Density change    ...    1.8874e-15  Tolerance :   1.0000e-07
  Last RMS-Density change    ...    1.8556e-17  Tolerance :   5.0000e-09
  Last Orbital Gradient      ...    7.1524e-07  Tolerance :   1.0000e-05
  Last Orbital Rotation      ...    1.5015e-06  Tolerance :   1.0000e-05

             **** THE GBW FILE WAS UPDATED (/scratch/c.c21095646/orca.56479399/orca.gbw) ****
             **** DENSITY /scratch/c.c21095646/orca.56479399/orca.scfp WAS UPDATED ****
             **** ENERGY FILE WAS UPDATED (/scratch/c.c21095646/orca.56479399/orca.en.tmp) ****
             **** THE GBW FILE WAS UPDATED (/scratch/c.c21095646/orca.56479399/orca.gbw) ****
             **** DENSITY /scratch/c.c21095646/orca.56479399/orca.scfp WAS UPDATED ****
----------------
ORBITAL ENERGIES
----------------

  NO   OCC          E(Eh)            E(eV) 
   0   2.0000     -19.291633      -524.9520 
   1   2.0000     -19.216459      -522.9064 
   2   2.0000     -10.374979      -282.3175 
   3   2.0000     -10.331935      -281.1462 
   4   2.0000     -10.326167      -280.9893 
   5   2.0000     -10.287100      -279.9262 
   6   2.0000     -10.278547      -279.6935 
   7   2.0000     -10.277056      -279.6529 
   8   2.0000     -10.264312      -279.3061 
   9   2.0000      -1.256433       -34.1893 
  10   2.0000      -1.189404       -32.3653 
  11   2.0000      -0.945035       -25.7157 
  12   2.0000      -0.928673       -25.2705 
  13   2.0000      -0.894003       -24.3271 
  14   2.0000      -0.798476       -21.7276 
  15   2.0000      -0.733500       -19.9596 
  16   2.0000      -0.719465       -19.5776 
  17   2.0000      -0.676536       -18.4095 
  18   2.0000      -0.631962       -17.1966 
  19   2.0000      -0.597051       -16.2466 
  20   2.0000      -0.586289       -15.9537 
  21   2.0000      -0.580724       -15.8023 
  22   2.0000      -0.556663       -15.1476 
  23   2.0000      -0.534643       -14.5484 
  24   2.0000      -0.516735       -14.0611 
  25   2.0000      -0.500784       -13.6270 
  26   2.0000      -0.494049       -13.4438 
  27   2.0000      -0.487265       -13.2592 
  28   2.0000      -0.476862       -12.9761 
  29   2.0000      -0.456592       -12.4245 
  30   2.0000      -0.392427       -10.6785 
  31   2.0000      -0.371754       -10.1160 
  32   2.0000      -0.333585        -9.0773 
  33   0.0000       0.054607         1.4859 
  34   0.0000       0.083914         2.2834 
  35   0.0000       0.108402         2.9498 
  36   0.0000       0.140262         3.8167 
  37   0.0000       0.142689         3.8828 
  38   0.0000       0.152053         4.1376 
  39   0.0000       0.159113         4.3297 
  40   0.0000       0.166248         4.5238 
  41   0.0000       0.180399         4.9089 
  42   0.0000       0.189001         5.1430 
  43   0.0000       0.199304         5.4233 
  44   0.0000       0.213121         5.7993 
  45   0.0000       0.228424         6.2157 
  46   0.0000       0.237414         6.4604 
  47   0.0000       0.249416         6.7870 
  48   0.0000       0.270823         7.3695 
  49   0.0000       0.273924         7.4539 
  50   0.0000       0.277099         7.5402 
  51   0.0000       0.294087         8.0025 
  52   0.0000       0.298495         8.1225 
  53   0.0000       0.317830         8.6486 
  54   0.0000       0.330469         8.9925 
  55   0.0000       0.350186         9.5290 
  56   0.0000       0.354630         9.6500 
  57   0.0000       0.359079         9.7710 
  58   0.0000       0.370867        10.0918 
  59   0.0000       0.386043        10.5048 
  60   0.0000       0.404549        11.0083 
  61   0.0000       0.418984        11.4011 
  62   0.0000       0.425854        11.5881 
  63   0.0000       0.432646        11.7729 
  64   0.0000       0.439659        11.9637 
  65   0.0000       0.455863        12.4047 
  66   0.0000       0.466876        12.7043 
  67   0.0000       0.469399        12.7730 
  68   0.0000       0.484913        13.1952 
  69   0.0000       0.499602        13.5949 
  70   0.0000       0.507117        13.7994 
  71   0.0000       0.510837        13.9006 
  72   0.0000       0.516954        14.0670 
  73   0.0000       0.520280        14.1575 
  74   0.0000       0.529232        14.4011 
  75   0.0000       0.543865        14.7993 
  76   0.0000       0.549505        14.9528 
  77   0.0000       0.564067        15.3490 
  78   0.0000       0.583633        15.8815 
  79   0.0000       0.595233        16.1971 
  80   0.0000       0.603232        16.4148 
  81   0.0000       0.617565        16.8048 
  82   0.0000       0.639271        17.3955 
  83   0.0000       0.645889        17.5755 
  84   0.0000       0.659910        17.9571 
  85   0.0000       0.668900        18.2017 
  86   0.0000       0.678622        18.4663 
  87   0.0000       0.691703        18.8222 
  88   0.0000       0.699736        19.0408 
  89   0.0000       0.740177        20.1413 
  90   0.0000       0.752135        20.4666 
  91   0.0000       0.754378        20.5277 
  92   0.0000       0.761705        20.7271 
  93   0.0000       0.773394        21.0451 
  94   0.0000       0.808531        22.0013 
  95   0.0000       0.841074        22.8868 
  96   0.0000       0.879752        23.9393 
  97   0.0000       0.885252        24.0889 
  98   0.0000       0.903512        24.5858 
  99   0.0000       0.916334        24.9347 
 100   0.0000       0.925939        25.1961 
 101   0.0000       0.939419        25.5629 
 102   0.0000       0.960770        26.1439 
 103   0.0000       0.976124        26.5617 
 104   0.0000       1.000336        27.2205 
 105   0.0000       1.031168        28.0595 
 106   0.0000       1.040424        28.3114 
 107   0.0000       1.051529        28.6136 
 108   0.0000       1.060082        28.8463 
 109   0.0000       1.083245        29.4766 
 110   0.0000       1.085948        29.5501 
 111   0.0000       1.115741        30.3608 
 112   0.0000       1.138787        30.9880 
 113   0.0000       1.158253        31.5177 
 114   0.0000       1.177783        32.0491 
 115   0.0000       1.191960        32.4349 
 116   0.0000       1.205734        32.8097 
 117   0.0000       1.210698        32.9448 
 118   0.0000       1.239597        33.7312 
 119   0.0000       1.253595        34.1121 
 120   0.0000       1.281398        34.8686 
 121   0.0000       1.298808        35.3423 
 122   0.0000       1.307741        35.5854 
 123   0.0000       1.328510        36.1506 
 124   0.0000       1.352445        36.8019 
 125   0.0000       1.380525        37.5660 
 126   0.0000       1.388107        37.7723 
 127   0.0000       1.397184        38.0193 
 128   0.0000       1.422165        38.6991 
 129   0.0000       1.491292        40.5801 
 130   0.0000       1.507794        41.0292 
 131   0.0000       1.535484        41.7827 
 132   0.0000       1.562927        42.5294 
 133   0.0000       1.583329        43.0846 
 134   0.0000       1.589482        43.2520 
 135   0.0000       1.605655        43.6921 
 136   0.0000       1.623314        44.1726 
 137   0.0000       1.638443        44.5843 
 138   0.0000       1.649038        44.8726 
 139   0.0000       1.655392        45.0455 
 140   0.0000       1.670360        45.4528 
 141   0.0000       1.678103        45.6635 
 142   0.0000       1.683676        45.8151 
 143   0.0000       1.711751        46.5791 
 144   0.0000       1.733562        47.1726 
 145   0.0000       1.745615        47.5006 
 146   0.0000       1.772359        48.2284 
 147   0.0000       1.816763        49.4366 
 148   0.0000       1.834225        49.9118 
 149   0.0000       1.872027        50.9405 
 150   0.0000       1.885238        51.2999 
 151   0.0000       1.894140        51.5422 
 152   0.0000       1.924727        52.3745 
 153   0.0000       1.931814        52.5673 
 154   0.0000       1.953154        53.1480 
 155   0.0000       1.959393        53.3178 
 156   0.0000       1.971280        53.6412 
 157   0.0000       1.996200        54.3194 
 158   0.0000       2.017450        54.8976 
 159   0.0000       2.045661        55.6653 
 160   0.0000       2.086141        56.7668 
 161   0.0000       2.096424        57.0466 
 162   0.0000       2.127698        57.8976 
 163   0.0000       2.139371        58.2152 
 164   0.0000       2.153357        58.5958 
 165   0.0000       2.181779        59.3692 
 166   0.0000       2.193751        59.6950 
 167   0.0000       2.208484        60.0959 
 168   0.0000       2.225875        60.5691 
 169   0.0000       2.239388        60.9369 
 170   0.0000       2.281421        62.0806 
 171   0.0000       2.309191        62.8363 
 172   0.0000       2.327883        63.3449 
 173   0.0000       2.344884        63.8075 
 174   0.0000       2.357374        64.1474 
 175   0.0000       2.396085        65.2008 
 176   0.0000       2.407687        65.5165 
 177   0.0000       2.431625        66.1679 
 178   0.0000       2.433174        66.2100 
 179   0.0000       2.479663        67.4750 
 180   0.0000       2.513137        68.3859 
 181   0.0000       2.520719        68.5922 
 182   0.0000       2.550479        69.4021 
 183   0.0000       2.562273        69.7230 
 184   0.0000       2.565026        69.7979 
 185   0.0000       2.598115        70.6983 
 186   0.0000       2.617340        71.2215 
 187   0.0000       2.623110        71.3785 
 188   0.0000       2.664590        72.5072 
 189   0.0000       2.674526        72.7776 
 190   0.0000       2.692522        73.2673 
 191   0.0000       2.712576        73.8130 
 192   0.0000       2.725138        74.1548 
 193   0.0000       2.737578        74.4933 
 194   0.0000       2.743582        74.6567 
 195   0.0000       2.768793        75.3427 
 196   0.0000       2.776150        75.5429 
 197   0.0000       2.781759        75.6955 
 198   0.0000       2.789030        75.8934 
 199   0.0000       2.807776        76.4035 
 200   0.0000       2.825217        76.8781 
 201   0.0000       2.844438        77.4011 
 202   0.0000       2.879654        78.3594 
 203   0.0000       2.913117        79.2699 
 204   0.0000       2.943032        80.0840 
 205   0.0000       2.957755        80.4846 
 206   0.0000       2.970533        80.8323 
 207   0.0000       2.979804        81.0846 
 208   0.0000       3.008894        81.8762 
 209   0.0000       3.030728        82.4703 
 210   0.0000       3.049269        82.9748 
 211   0.0000       3.071796        83.5878 
 212   0.0000       3.101948        84.4083 
 213   0.0000       3.117896        84.8423 
 214   0.0000       3.129259        85.1515 
 215   0.0000       3.136774        85.3560 
 216   0.0000       3.156795        85.9008 
 217   0.0000       3.160436        85.9998 
 218   0.0000       3.179644        86.5225 
 219   0.0000       3.189641        86.7945 
 220   0.0000       3.211136        87.3794 
 221   0.0000       3.220878        87.6446 
 222   0.0000       3.236006        88.0562 
 223   0.0000       3.256413        88.6115 
 224   0.0000       3.272019        89.0362 
 225   0.0000       3.283964        89.3612 
 226   0.0000       3.290908        89.5502 
 227   0.0000       3.299266        89.7776 
 228   0.0000       3.321191        90.3742 
 229   0.0000       3.330152        90.6180 
 230   0.0000       3.337793        90.8260 
 231   0.0000       3.344955        91.0209 
 232   0.0000       3.362898        91.5091 
 233   0.0000       3.395840        92.4055 
 234   0.0000       3.404261        92.6346 
 235   0.0000       3.408374        92.7466 
 236   0.0000       3.420763        93.0837 
 237   0.0000       3.438029        93.5535 
 238   0.0000       3.468775        94.3902 
 239   0.0000       3.485549        94.8466 
 240   0.0000       3.502211        95.3000 
 241   0.0000       3.523363        95.8756 
 242   0.0000       3.530790        96.0777 
 243   0.0000       3.538023        96.2745 
 244   0.0000       3.574548        97.2684 
 245   0.0000       3.590595        97.7051 
 246   0.0000       3.622961        98.5858 
 247   0.0000       3.629963        98.7763 
 248   0.0000       3.663704        99.6945 
 249   0.0000       3.672839        99.9430 
 250   0.0000       3.705986       100.8450 
 251   0.0000       3.715302       101.0985 
 252   0.0000       3.729706       101.4905 
 253   0.0000       3.772949       102.6672 
 254   0.0000       3.804827       103.5346 
 255   0.0000       3.821640       103.9921 
 256   0.0000       3.853976       104.8720 
 257   0.0000       3.875091       105.4466 
 258   0.0000       3.879253       105.5598 
 259   0.0000       3.937744       107.1515 
 260   0.0000       3.987505       108.5055 
 261   0.0000       4.003587       108.9432 
 262   0.0000       4.059692       110.4698 
 263   0.0000       4.101452       111.6062 
 264   0.0000       4.112836       111.9159 
 265   0.0000       4.132470       112.4502 
 266   0.0000       4.207084       114.4806 
 267   0.0000       4.276835       116.3786 
 268   0.0000       4.301579       117.0519 
 269   0.0000       4.310541       117.2958 
 270   0.0000       4.331935       117.8779 
 271   0.0000       4.337689       118.0345 
 272   0.0000       4.382763       119.2611 
 273   0.0000       4.424618       120.4000 
 274   0.0000       4.457841       121.3040 
 275   0.0000       4.475758       121.7916 
 276   0.0000       4.511528       122.7649 
 277   0.0000       4.565619       124.2368 
 278   0.0000       4.580613       124.6448 
 279   0.0000       4.598082       125.1202 
 280   0.0000       4.655984       126.6958 
 281   0.0000       4.696272       127.7921 
 282   0.0000       4.750049       129.2554 
 283   0.0000       4.767365       129.7266 
 284   0.0000       4.807020       130.8057 
 285   0.0000       4.862829       132.3243 
 286   0.0000       4.892180       133.1230 
 287   0.0000       4.901569       133.3785 
 288   0.0000       4.946642       134.6050 
 289   0.0000       4.992747       135.8595 
 290   0.0000       5.019655       136.5917 
 291   0.0000       5.083361       138.3253 
 292   0.0000       5.242075       142.6441 
 293   0.0000       5.301332       144.2566 
 294   0.0000       5.317301       144.6911 
 295   0.0000       5.500367       149.6726 
 296   0.0000       5.591250       152.1457 
 297   0.0000       5.676372       154.4619 
 298   0.0000       5.772592       157.0802 
 299   0.0000       5.831339       158.6788 
 300   0.0000       5.862390       159.5237 
 301   0.0000       5.901931       160.5997 
 302   0.0000       6.015199       163.6819 
 303   0.0000       6.271595       170.6588 
 304   0.0000       6.375518       173.4867 
 305   0.0000       6.443897       175.3474 
 306   0.0000       6.511119       177.1765 
 307   0.0000       6.603389       179.6873 
 308   0.0000       6.653688       181.0561 
 309   0.0000       6.689332       182.0260 
 310   0.0000       6.777093       184.4141 
 311   0.0000       6.885427       187.3620 
 312   0.0000       6.901668       187.8039 
 313   0.0000       6.920374       188.3130 
 314   0.0000       7.132583       194.0875 
 315   0.0000       7.185914       195.5387 
 316   0.0000       7.335552       199.6105 
 317   0.0000       7.435187       202.3217 
 318   0.0000      22.284643       606.3960 
 319   0.0000      22.440154       610.6276 
 320   0.0000      22.562862       613.9667 
 321   0.0000      22.660778       616.6311 
 322   0.0000      22.847320       621.7072 
 323   0.0000      23.167604       630.4226 
 324   0.0000      23.312118       634.3550 
 325   0.0000      43.979524      1196.7437 
 326   0.0000      44.154935      1201.5169 
-------
TIMINGS
-------

Total SCF time: 0 days 0 hours 0 min 8 sec 

Total time                  ....       8.346 sec
Sum of individual times     ....       7.495 sec  ( 89.8%)

Fock matrix formation       ....       5.724 sec  ( 68.6%)
  Split-RI-J                ....       0.706 sec  ( 12.3% of F)
  Chain of spheres X        ....       3.857 sec  ( 67.4% of F)
  XC integration            ....       0.932 sec  ( 16.3% of F)
    Basis function eval.    ....       0.052 sec  (  5.6% of XC)
    Density eval.           ....       0.043 sec  (  4.6% of XC)
    XC-Functional eval.     ....       0.302 sec  ( 32.4% of XC)
    XC-Potential eval.      ....       0.041 sec  (  4.4% of XC)
Diagonalization             ....       0.136 sec  (  1.6%)
Density matrix formation    ....       0.014 sec  (  0.2%)
Population analysis         ....       0.000 sec  (  0.0%)
Initial guess               ....       0.039 sec  (  0.5%)
Orbital Transformation      ....       0.000 sec  (  0.0%)
Orbital Orthonormalization  ....       0.027 sec  (  0.3%)
DIIS solution               ....       0.403 sec  (  4.8%)
SOSCF solution              ....       0.047 sec  (  0.6%)
Grid generation             ....       1.132 sec  ( 13.6%)

Maximum memory used throughout the entire SCF-calculation: 79.3 MB

-------------------------   --------------------
FINAL SINGLE POINT ENERGY      -422.010510033306
-------------------------   --------------------



           ************************************************************
           *        Program running with 40 parallel MPI-processes    *
           *              working on a common directory               *
           ************************************************************
------------------------------------------------------------------------------
                         ORCA SCF GRADIENT CALCULATION
------------------------------------------------------------------------------

 ... reading COSX grid (gridx3)
Gradient of the Kohn-Sham DFT energy:
Kohn-Sham wavefunction type      ... RKS
Hartree-Fock exchange scaling    ...    0.167
Number of operators              ...    1
Number of atoms                  ...   17
Basis set dimensions             ...  327
Integral neglect threshold       ... 2.5e-11
Integral primitive cutoff        ... 2.5e-12
SHARK Integral package           ... ON

Nuc. rep. gradient       (SHARK) ... done (  0.0 sec)
HCore & Overlap gradient (SHARK) ... done (  0.0 sec)
RI-J gradient            (SHARK) ... done (  0.4 sec)
COSX-gradient                    ... done (  2.1 sec)
Exchange-correlation gradient    ... done
NL correlation gradient          ... done

------------------
CARTESIAN GRADIENT
------------------

   1   C   :   -0.000890969    0.000281771   -0.000755934
   2   C   :    0.000684906   -0.001071319    0.000027567
   3   C   :   -0.001218334    0.000768052    0.000067147
   4   C   :    0.000344750    0.000000456   -0.000065999
   5   C   :   -0.000039196   -0.001173705    0.000235448
   6   O   :    0.001121108    0.000002345    0.000498157
   7   O   :   -0.000606953   -0.000167449   -0.000483226
   8   H   :    0.000277238   -0.000680097    0.000053620
   9   H   :    0.000253382   -0.000056193   -0.000136876
  10   H   :   -0.000010230    0.000439805   -0.000241558
  11   C   :    0.000034459   -0.000027438   -0.000231444
  12   C   :   -0.000022878    0.000097697    0.000128338
  13   H   :   -0.000012676    0.000420769    0.000187495
  14   H   :   -0.000114335    0.000307474    0.000402786
  15   H   :    0.000129400    0.000389706    0.000273220
  16   H   :   -0.000121949    0.000263435    0.000344512
  17   H   :   -0.000062332    0.000410462    0.000107032

Difference to translation invariance:
           :   -0.0002546084    0.0002057711    0.0004102855

Difference to rotation invariance:
           :    0.0005118341    0.0000386791    0.0000751956

Norm of the cartesian gradient     ...    0.0033027690
RMS gradient                       ...    0.0004624802
MAX gradient                       ...    0.0012183338

-------
TIMINGS
-------

Total SCF gradient time            ...        4.080 sec

One electron gradient       ....       0.047 sec  (  1.1%)
RI-J Coulomb gradient       ....       0.433 sec  ( 10.6%)
COSX gradient               ....       2.116 sec  ( 51.9%)
XC gradient                 ....       0.267 sec  (  6.5%)
NL correlation gradient     ....       0.431 sec  ( 10.6%)

Maximum memory used throughout the entire SCFGRAD-calculation: 51.6 MB
------------------------------------------------------------------------------
                         ORCA GEOMETRY RELAXATION STEP
------------------------------------------------------------------------------

Reading the OPT-File                    .... done
Getting information on internals        .... done
Copying old internal coords+grads       .... done
Making the new internal coordinates     .... (new redundants).... done
Validating the new internal coordinates .... (new redundants).... done
Calculating the B-matrix                .... done
Calculating the G,G- and P matrices     .... done
Transforming gradient to internals      .... done
Projecting the internal gradient        .... done
Number of atoms                         ....  17
Number of internal coordinates          ....  83
Current Energy                          ....  -422.010510033 Eh
Current gradient norm                   ....     0.003302769 Eh/bohr
Maximum allowed component of the step   ....  0.300
Current trust radius                    ....  0.100
Evaluating the initial hessian          ....  (read) 
(Reading Exact Hessian)...  
InHessName: /scratch/c.c21095646/orca.56479399/orca.appr.hess	The file </scratch/c.c21095646/orca.56479399/orca.appr.hess> is opened as a .hess file
done
done
Diagonalizing the Hessian               .... done
Dimension of the hessian                .... 83
Lowest eigenvalues of the non projected Hessian:
 -0.008490265 -0.000000000 -0.000000000 -0.000000000 -0.000000000
done
Projecting the Hessian                  .... done
Diagonalizing the Hessian               .... done
Dimension of the hessian                ....  83
Lowest eigenvalues of the Hessian:
 -0.008490265  0.011678620  0.011753574  0.013291219  0.023075424
Hessian has   1 negative eigenvalues
Taking P-RFO step
Searching for lambda that maximizes along the lowest mode
TS mode is mode number   0 with eigenvalue  -0.00849026 and components:
   1.    0.03389655
   2.    0.02107616
   3.    0.01114856
   4.    0.00199312
   5.    0.03851946
   6.    0.03995114
   7.    0.03017269
   8.   -0.00157246
   9.    0.01217929
  10.    0.00589300
  11.    0.02379565
  12.    0.02110424
  13.    0.07368018
  14.    0.00215029
  15.    0.05754629
  16.    0.01860451
  17.    0.02175150
  18.    0.02186428
  19.    0.01316873
  20.    0.02313093
  21.   -0.00777152
  22.    0.00614222
  23.    0.00157110
  24.   -0.00874101
  25.    0.00736109
  26.    0.00137269
  27.    0.02365289
  28.    0.01204580
  29.   -0.03772701
  30.    0.01482908
  31.   -0.00184282
  32.   -0.01343177
  33.   -0.01993531
  34.    0.00276387
  35.    0.01711689
  36.   -0.00753621
  37.   -0.00201834
  38.   -0.00777795
  39.   -0.01532157
  40.    0.00973177
  41.    0.02283464
  42.   -0.00689915
  43.    0.00302949
  44.    0.00316761
  45.   -0.00436781
  46.    0.00548334
  47.   -0.00969812
  48.    0.00299188
  49.   -0.00055278
  50.    0.03405935
  51.    0.00057980
  52.    0.03292676
  53.   -0.01956945
  54.    0.01698217
  55.    0.01928605
  56.    0.00039720
  57.   -0.00183559
  58.    0.00149039
  59.    0.03471603
  60.    0.01819286
  61.    0.47433346
  62.    0.50746410
  63.    0.47073144
  64.    0.51106612
  65.   -0.02682057
  66.    0.00148573
  67.   -0.02764467
  68.   -0.00049724
  69.    0.00168914
  70.   -0.00219181
  71.    0.00280449
  72.   -0.00107647
  73.    0.02756213
  74.    0.02368117
  75.   -0.00657860
  76.    0.02698620
  77.    0.02825189
  78.    0.02583650
  79.   -0.00416320
  80.    0.03006140
  81.    0.03132710
  82.   -0.00108800
  83.    0.02457080

Lambda that maximizes along the TS mode:       0.00015901
Searching for lambda that minimizes along all other modes
In cycle   1: lambdaN =  -0.00019223   step =   0.00019223
In cycle   2: lambdaN =  -0.00019224   step =   0.00000001
In cycle   3: lambdaN =  -0.00019224   step =   0.00000000
Lambda that minimizes along all other modes:  -0.00019224
Calculated stepsize too large (   0.1536 >    0.1000). Scaled with    0.6510.
The final length of the internal step   ....       0.1000
Converting the step to cartesian space:
 Initial RMS(Int)=    0.0109764260
Transforming coordinates:
 Iter   0:  RMS(Cart)=    0.0341703538 RMS(Int)=    0.0109424978
 Iter   1:  RMS(Cart)=    0.0004670709 RMS(Int)=    0.0003004788
 Iter   2:  RMS(Cart)=    0.0000167074 RMS(Int)=    0.0000053950
 Iter   3:  RMS(Cart)=    0.0000004395 RMS(Int)=    0.0000002632
 Iter   4:  RMS(Cart)=    0.0000000161 RMS(Int)=    0.0000000054
done
Storing new coordinates                 .... done

                                .--------------------.
          ----------------------|Geometry convergence|-------------------------
          Item                value                   Tolerance       Converged
          ---------------------------------------------------------------------
          RMS gradient        0.0007186962            0.0001000000      NO
          MAX gradient        0.0027941663            0.0003000000      NO
          RMS step            0.0109764260            0.0020000000      NO
          MAX step            0.0622897274            0.0040000000      NO
          ........................................................
          Max(Bonds)      0.0044      Max(Angles)    0.17
          Max(Dihed)        3.57      Max(Improp)    0.00
          ---------------------------------------------------------------------

The optimization has not yet converged - more geometry cycles are needed


    ---------------------------------------------------------------------------
                         Redundant Internal Coordinates
                            (Angstroem and degrees)

        Definition                    Value    dE/dq     Step     New-Value  comp.(TS mode)
    ----------------------------------------------------------------------------
     1. B(C   1,C   0)                1.3522  0.000814 -0.0021    1.3501   
     2. B(C   3,C   2)                1.3533  0.000284 -0.0012    1.3521   
     3. B(C   3,C   1)                1.4362  0.000281 -0.0007    1.4354   
     4. B(C   4,C   2)                1.5088  0.001312 -0.0012    1.5075   
     5. B(O   5,C   2)                2.3559 -0.000012 -0.0016    2.3543   
     6. B(O   5,C   4)                1.2066  0.000516 -0.0022    1.2044   
     7. B(O   6,C   2)                1.3587  0.001421 -0.0023    1.3563   
     8. B(O   6,C   0)                1.3618  0.001314 -0.0007    1.3612   
     9. B(H   7,C   0)                1.0787 -0.000006 -0.0006    1.0781   
    10. B(H   8,C   1)                1.0798  0.000161 -0.0005    1.0794   
    11. B(H   9,C   3)                1.0799 -0.000218 -0.0010    1.0789   
    12. B(C  10,C   4)                1.5117  0.001329 -0.0023    1.5094   
    13. B(C  10,O   5)                2.3943 -0.000193 -0.0035    2.3908   
    14. B(C  11,C  10)                1.5228  0.001243 -0.0013    1.5215   
    15. B(C  11,O   5)                2.8117  0.000099 -0.0044    2.8073   
    16. B(H  12,C  10)                1.0980 -0.000176 -0.0008    1.0972   
    17. B(H  13,C  10)                1.0983 -0.000009 -0.0011    1.0972   
    18. B(H  14,C  11)                1.0927  0.000246 -0.0014    1.0913   
    19. B(H  15,C  11)                1.0934  0.000359 -0.0010    1.0924   
    20. B(H  16,C  11)                1.0925  0.000237 -0.0014    1.0911   
    21. A(O   6,C   0,H   7)          116.11  0.000772   -0.04    116.08   
    22. A(C   1,C   0,H   7)          133.23 -0.000771    0.05    133.28   
    23. A(C   1,C   0,O   6)          110.65 -0.000001   -0.01    110.64   
    24. A(C   3,C   1,H   8)          127.46  0.000054    0.04    127.50   
    25. A(C   0,C   1,C   3)          105.97 -0.000243   -0.01    105.96   
    26. A(C   0,C   1,H   8)          126.57  0.000189   -0.03    126.54   
    27. A(C   3,C   2,C   4)          131.58 -0.002333    0.10    131.69   
    28. A(C   3,C   2,O   6)          110.65 -0.000496   -0.01    110.63   
    29. A(C   4,C   2,O   6)          117.65  0.002793   -0.02    117.62   
    30. A(C   2,C   3,H   9)          126.15 -0.000761   -0.01    126.15   
[...]
  12   2.0000      -0.930075       -25.3086 
  13   2.0000      -0.894368       -24.3370 
  14   2.0000      -0.798855       -21.7379 
  15   2.0000      -0.734023       -19.9738 
  16   2.0000      -0.718897       -19.5622 
  17   2.0000      -0.676980       -18.4216 
  18   2.0000      -0.631774       -17.1915 
  19   2.0000      -0.596383       -16.2284 
  20   2.0000      -0.587136       -15.9768 
  21   2.0000      -0.581809       -15.8318 
  22   2.0000      -0.556106       -15.1324 
  23   2.0000      -0.535326       -14.5670 
  24   2.0000      -0.517164       -14.0728 
  25   2.0000      -0.501096       -13.6355 
  26   2.0000      -0.494130       -13.4460 
  27   2.0000      -0.487786       -13.2733 
  28   2.0000      -0.477234       -12.9862 
  29   2.0000      -0.456558       -12.4236 
  30   2.0000      -0.392707       -10.6861 
  31   2.0000      -0.371406       -10.1065 
  32   2.0000      -0.334018        -9.0891 
  33   0.0000       0.055760         1.5173 
  34   0.0000       0.083309         2.2670 
  35   0.0000       0.108839         2.9617 
  36   0.0000       0.140832         3.8322 
  37   0.0000       0.143174         3.8960 
  38   0.0000       0.151963         4.1351 
  39   0.0000       0.159111         4.3296 
  40   0.0000       0.166229         4.5233 
  41   0.0000       0.179405         4.8819 
  42   0.0000       0.188818         5.1380 
  43   0.0000       0.199400         5.4260 
  44   0.0000       0.213018         5.7965 
  45   0.0000       0.228193         6.2094 
  46   0.0000       0.236855         6.4452 
  47   0.0000       0.250172         6.8075 
  48   0.0000       0.270348         7.3566 
  49   0.0000       0.273514         7.4427 
  50   0.0000       0.278002         7.5648 
  51   0.0000       0.294127         8.0036 
  52   0.0000       0.299717         8.1557 
  53   0.0000       0.316313         8.6073 
  54   0.0000       0.332232         9.0405 
  55   0.0000       0.346858         9.4385 
  56   0.0000       0.355241         9.6666 
  57   0.0000       0.359187         9.7740 
  58   0.0000       0.372424        10.1342 
  59   0.0000       0.384583        10.4650 
  60   0.0000       0.402557        10.9541 
  61   0.0000       0.419801        11.4234 
  62   0.0000       0.426815        11.6142 
  63   0.0000       0.432699        11.7743 
  64   0.0000       0.441378        12.0105 
  65   0.0000       0.460595        12.5334 
  66   0.0000       0.468322        12.7437 
  67   0.0000       0.469058        12.7637 
  68   0.0000       0.486471        13.2376 
  69   0.0000       0.498981        13.5780 
  70   0.0000       0.507661        13.8142 
  71   0.0000       0.510458        13.8903 
  72   0.0000       0.518426        14.1071 
  73   0.0000       0.522592        14.2204 
  74   0.0000       0.528607        14.3841 
  75   0.0000       0.545627        14.8473 
  76   0.0000       0.548211        14.9176 
  77   0.0000       0.564818        15.3695 
  78   0.0000       0.584081        15.8936 
  79   0.0000       0.596952        16.2439 
  80   0.0000       0.605599        16.4792 
  81   0.0000       0.615847        16.7581 
  82   0.0000       0.635264        17.2864 
  83   0.0000       0.645086        17.5537 
  84   0.0000       0.659276        17.9398 
  85   0.0000       0.669495        18.2179 
  86   0.0000       0.680278        18.5113 
  87   0.0000       0.694988        18.9116 
  88   0.0000       0.705107        19.1869 
  89   0.0000       0.734573        19.9888 
  90   0.0000       0.746231        20.3060 
  91   0.0000       0.749386        20.3918 
  92   0.0000       0.765616        20.8335 
  93   0.0000       0.771374        20.9901 
  94   0.0000       0.813041        22.1240 
  95   0.0000       0.837379        22.7862 
  96   0.0000       0.880751        23.9664 
  97   0.0000       0.883458        24.0401 
  98   0.0000       0.902942        24.5703 
  99   0.0000       0.917917        24.9778 
 100   0.0000       0.925481        25.1836 
 101   0.0000       0.940523        25.5929 
 102   0.0000       0.964494        26.2452 
 103   0.0000       0.977893        26.6098 
 104   0.0000       1.001521        27.2528 
 105   0.0000       1.028225        27.9794 
 106   0.0000       1.040042        28.3010 
 107   0.0000       1.050917        28.5969 
 108   0.0000       1.062592        28.9146 
 109   0.0000       1.087160        29.5831 
 110   0.0000       1.089238        29.6397 
 111   0.0000       1.110931        30.2300 
 112   0.0000       1.138403        30.9775 
 113   0.0000       1.155901        31.4537 
 114   0.0000       1.177160        32.0322 
 115   0.0000       1.192891        32.4602 
 116   0.0000       1.204338        32.7717 
 117   0.0000       1.211889        32.9772 
 118   0.0000       1.240642        33.7596 
 119   0.0000       1.249735        34.0070 
 120   0.0000       1.281585        34.8737 
 121   0.0000       1.297214        35.2990 
 122   0.0000       1.308618        35.6093 
 123   0.0000       1.330958        36.2172 
 124   0.0000       1.356113        36.9017 
 125   0.0000       1.379438        37.5364 
 126   0.0000       1.391996        37.8781 
 127   0.0000       1.397695        38.0332 
 128   0.0000       1.420357        38.6499 
 129   0.0000       1.497593        40.7516 
 130   0.0000       1.506892        41.0046 
 131   0.0000       1.530202        41.6389 
 132   0.0000       1.560852        42.4729 
 133   0.0000       1.585019        43.1306 
 134   0.0000       1.589887        43.2630 
 135   0.0000       1.608266        43.7631 
 136   0.0000       1.624886        44.2154 
 137   0.0000       1.639461        44.6120 
 138   0.0000       1.648153        44.8485 
 139   0.0000       1.655070        45.0367 
 140   0.0000       1.675332        45.5881 
 141   0.0000       1.681123        45.7457 
 142   0.0000       1.683912        45.8216 
 143   0.0000       1.707422        46.4613 
 144   0.0000       1.734225        47.1906 
 145   0.0000       1.747142        47.5421 
 146   0.0000       1.770569        48.1796 
 147   0.0000       1.820774        49.5458 
 148   0.0000       1.839697        50.0607 
 149   0.0000       1.870580        50.9011 
 150   0.0000       1.889263        51.4095 
 151   0.0000       1.895597        51.5818 
 152   0.0000       1.925449        52.3941 
 153   0.0000       1.930359        52.5278 
 154   0.0000       1.951894        53.1137 
 155   0.0000       1.962161        53.3931 
 156   0.0000       1.968531        53.5665 
 157   0.0000       1.993703        54.2514 
 158   0.0000       2.015764        54.8517 
 159   0.0000       2.047349        55.7112 
 160   0.0000       2.083307        56.6897 
 161   0.0000       2.103336        57.2347 
 162   0.0000       2.134375        58.0793 
 163   0.0000       2.136267        58.1308 
 164   0.0000       2.156639        58.6851 
 165   0.0000       2.175661        59.2027 
 166   0.0000       2.193158        59.6789 
 167   0.0000       2.206142        60.0322 
 168   0.0000       2.227044        60.6009 
 169   0.0000       2.239402        60.9372 
 170   0.0000       2.285634        62.1953 
 171   0.0000       2.314740        62.9873 
 172   0.0000       2.328567        63.3635 
 173   0.0000       2.345956        63.8367 
 174   0.0000       2.363859        64.3239 
 175   0.0000       2.392293        65.0976 
 176   0.0000       2.407420        65.5092 
 177   0.0000       2.430420        66.1351 
 178   0.0000       2.432818        66.2004 
 179   0.0000       2.480559        67.4994 
 180   0.0000       2.512160        68.3594 
 181   0.0000       2.521608        68.6165 
 182   0.0000       2.553362        69.4805 
 183   0.0000       2.563289        69.7507 
 184   0.0000       2.565561        69.8125 
 185   0.0000       2.593552        70.5741 
 186   0.0000       2.618315        71.2480 
 187   0.0000       2.625420        71.4413 
 188   0.0000       2.666349        72.5550 
 189   0.0000       2.676165        72.8221 
 190   0.0000       2.691662        73.2438 
 191   0.0000       2.712793        73.8189 
 192   0.0000       2.723311        74.1051 
 193   0.0000       2.734703        74.4151 
 194   0.0000       2.745291        74.7032 
 195   0.0000       2.769269        75.3556 
 196   0.0000       2.776025        75.5395 
 197   0.0000       2.782842        75.7250 
 198   0.0000       2.790349        75.9293 
 199   0.0000       2.804386        76.3112 
 200   0.0000       2.825655        76.8900 
 201   0.0000       2.841616        77.3243 
 202   0.0000       2.880630        78.3859 
 203   0.0000       2.916672        79.3667 
 204   0.0000       2.942357        80.0656 
 205   0.0000       2.962296        80.6082 
 206   0.0000       2.972913        80.8971 
 207   0.0000       2.977437        81.0202 
 208   0.0000       3.008960        81.8780 
 209   0.0000       3.028458        82.4085 
 210   0.0000       3.048294        82.9483 
 211   0.0000       3.072039        83.5944 
 212   0.0000       3.103694        84.4558 
 213   0.0000       3.120472        84.9123 
 214   0.0000       3.127324        85.0988 
 215   0.0000       3.135849        85.3308 
 216   0.0000       3.150638        85.7332 
 217   0.0000       3.162773        86.0634 
 218   0.0000       3.179534        86.5195 
 219   0.0000       3.189511        86.7910 
 220   0.0000       3.212594        87.4191 
 221   0.0000       3.220460        87.6332 
 222   0.0000       3.232760        87.9679 
 223   0.0000       3.256864        88.6238 
 224   0.0000       3.273693        89.0817 
 225   0.0000       3.289808        89.5202 
 226   0.0000       3.295079        89.6637 
 227   0.0000       3.297823        89.7383 
 228   0.0000       3.317726        90.2799 
 229   0.0000       3.326779        90.5263 
 230   0.0000       3.336321        90.7859 
 231   0.0000       3.346278        91.0569 
 232   0.0000       3.366652        91.6113 
 233   0.0000       3.393046        92.3295 
 234   0.0000       3.407002        92.7092 
 235   0.0000       3.413489        92.8858 
 236   0.0000       3.425212        93.2047 
 237   0.0000       3.438769        93.5737 
 238   0.0000       3.472538        94.4926 
 239   0.0000       3.494063        95.0783 
 240   0.0000       3.500995        95.2669 
 241   0.0000       3.518223        95.7357 
 242   0.0000       3.530049        96.0575 
 243   0.0000       3.540028        96.3291 
 244   0.0000       3.575347        97.2901 
 245   0.0000       3.592263        97.7505 
 246   0.0000       3.620851        98.5284 
 247   0.0000       3.630769        98.7983 
 248   0.0000       3.660390        99.6043 
 249   0.0000       3.675581       100.0177 
 250   0.0000       3.702144       100.7405 
 251   0.0000       3.722598       101.2970 
 252   0.0000       3.729466       101.4839 
 253   0.0000       3.779338       102.8410 
 254   0.0000       3.806523       103.5808 
 255   0.0000       3.829932       104.2177 
 256   0.0000       3.849783       104.7579 
 257   0.0000       3.881468       105.6201 
 258   0.0000       3.887394       105.7814 
 259   0.0000       3.943374       107.3047 
 260   0.0000       3.991177       108.6054 
 261   0.0000       4.007905       109.0606 
 262   0.0000       4.065390       110.6249 
 263   0.0000       4.103575       111.6640 
 264   0.0000       4.109287       111.8194 
 265   0.0000       4.128261       112.3357 
 266   0.0000       4.202504       114.3560 
 267   0.0000       4.277169       116.3877 
 268   0.0000       4.302291       117.0713 
 269   0.0000       4.310731       117.3010 
 270   0.0000       4.331761       117.8732 
 271   0.0000       4.337220       118.0218 
 272   0.0000       4.385872       119.3456 
 273   0.0000       4.424995       120.4102 
 274   0.0000       4.454480       121.2126 
 275   0.0000       4.480726       121.9267 
 276   0.0000       4.513944       122.8307 
 277   0.0000       4.567642       124.2919 
 278   0.0000       4.586344       124.8008 
 279   0.0000       4.596821       125.0859 
 280   0.0000       4.655739       126.6891 
 281   0.0000       4.703359       127.9849 
 282   0.0000       4.754424       129.3745 
 283   0.0000       4.769858       129.7944 
 284   0.0000       4.801940       130.6674 
 285   0.0000       4.861946       132.3003 
 286   0.0000       4.892712       133.1374 
 287   0.0000       4.904220       133.4506 
 288   0.0000       4.944614       134.5498 
 289   0.0000       4.992053       135.8407 
 290   0.0000       5.027690       136.8104 
 291   0.0000       5.087461       138.4368 
 292   0.0000       5.243455       142.6817 
 293   0.0000       5.301716       144.2670 
 294   0.0000       5.316623       144.6727 
 295   0.0000       5.495331       149.5356 
 296   0.0000       5.605000       152.5198 
 297   0.0000       5.677886       154.5031 
 298   0.0000       5.774384       157.1290 
 299   0.0000       5.825173       158.5110 
 300   0.0000       5.864086       159.5699 
 301   0.0000       5.904902       160.6805 
 302   0.0000       6.020061       163.8142 
 303   0.0000       6.275843       170.7744 
 304   0.0000       6.379473       173.5943 
 305   0.0000       6.447245       175.4384 
 306   0.0000       6.511502       177.1870 
 307   0.0000       6.606097       179.7610 
 308   0.0000       6.663079       181.3116 
 309   0.0000       6.696500       182.2210 
 310   0.0000       6.777038       184.4126 
 311   0.0000       6.885250       187.3572 
 312   0.0000       6.905131       187.8982 
 313   0.0000       6.916538       188.2086 
 314   0.0000       7.131253       194.0513 
 315   0.0000       7.188048       195.5967 
 316   0.0000       7.336730       199.6426 
 317   0.0000       7.436045       202.3451 
 318   0.0000      22.287958       606.4862 
 319   0.0000      22.443384       610.7155 
 320   0.0000      22.565822       614.0472 
 321   0.0000      22.663365       616.7015 
 322   0.0000      22.852797       621.8562 
 323   0.0000      23.178927       630.7307 
 324   0.0000      23.325134       634.7092 
 325   0.0000      43.973511      1196.5801 
 326   0.0000      44.163992      1201.7633 
-------
TIMINGS
-------

Total SCF time: 0 days 0 hours 0 min 16 sec 

Total time                  ....      16.354 sec
Sum of individual times     ....      15.339 sec  ( 93.8%)

Fock matrix formation       ....      13.854 sec  ( 84.7%)
  Split-RI-J                ....       1.640 sec  ( 11.8% of F)
  Chain of spheres X        ....       7.215 sec  ( 52.1% of F)
  XC integration            ....       3.624 sec  ( 26.2% of F)
    Basis function eval.    ....       0.203 sec  (  5.6% of XC)
    Density eval.           ....       0.144 sec  (  4.0% of XC)
    XC-Functional eval.     ....       1.178 sec  ( 32.5% of XC)
    XC-Potential eval.      ....       0.150 sec  (  4.1% of XC)
Diagonalization             ....       0.040 sec  (  0.2%)
Density matrix formation    ....       0.022 sec  (  0.1%)
Population analysis         ....       0.000 sec  (  0.0%)
Initial guess               ....       0.041 sec  (  0.3%)
Orbital Transformation      ....       0.000 sec  (  0.0%)
Orbital Orthonormalization  ....       0.027 sec  (  0.2%)
DIIS solution               ....       0.014 sec  (  0.1%)
SOSCF solution              ....       0.262 sec  (  1.6%)
Grid generation             ....       1.106 sec  (  6.8%)

Maximum memory used throughout the entire SCF-calculation: 79.3 MB

-------------------------   --------------------
FINAL SINGLE POINT ENERGY      -422.010632141759
-------------------------   --------------------

                                *** OPTIMIZATION RUN DONE ***


                    ***********************HURRAY************************
                    ***        THE TS OPTIMIZATION HAS CONVERGED      ***
                    *****************************************************



---------------------------------------------------------------
                      PATH SUMMARY FOR NEB-TS             
---------------------------------------------------------------
All forces in Eh/Bohr. Global forces for TS.

Image     E(Eh)   dE(kcal/mol)  max(|Fp|)  RMS(Fp)
  0    -422.02001     0.00       0.03447   0.00877
  1    -422.01800     1.26       0.00136   0.00039
  2    -422.01434     3.56       0.00154   0.00047
  3    -422.01184     5.13       0.00143   0.00045
  4    -422.01051     5.96       0.00125   0.00045 <= CI
 TS    -422.01063     5.89       0.00048   0.00012 <= TS
  5    -422.01052     5.96       0.00150   0.00047
  6    -422.01175     5.19       0.00152   0.00052
  7    -422.01422     3.64       0.00147   0.00052
  8    -422.01846     0.98       0.00137   0.00056
  9    -422.02210    -1.31       0.02558   0.00876
----------
STATISTICS
----------

For the individual parts of the NEB, NEB-CI or NEB-TS run:

Number of iterations:
     NEB                               ... 19  67.9%
     TS optimization                   ... 9  32.1%
Number of SCF / gradient calculations:
     NEB                               ... 194  95.6%
     TS optimization                   ... 9  4.4%

----------
 TIMINGS
----------

For the individual parts of the NEB, NEB-CI or NEB-TS run:

Total                                  ...    24047.663 sec
NEB                                    ...    23606.624 sec  98.2%
TS Optimization                        ...      441.039 sec  1.8%


                            ***************************************
                            *     ORCA property calculations      *
                            ***************************************

                                    ---------------------
                                    Active property flags
                                    ---------------------
   (+) Dipole Moment


------------------------------------------------------------------------------
                       ORCA ELECTRIC PROPERTIES CALCULATION
------------------------------------------------------------------------------

Dipole Moment Calculation                       ... on
Quadrupole Moment Calculation                   ... off
Polarizability Calculation                      ... off
GBWName                                         ... /scratch/c.c21095646/orca.56479399/orca.gbw
Electron density file                           ... /scratch/c.c21095646/orca.56479399/orca.scfp
The origin for moment calculation is the CENTER OF MASS  = ( 0.165674, -0.241272 -0.850316)

-------------
DIPOLE MOMENT
-------------
                                X             Y             Z
Electronic contribution:      1.01720      -3.45830      -6.68152
Nuclear contribution   :     -1.48670       2.63109       7.32520
                        -----------------------------------------
Total Dipole Moment    :     -0.46950      -0.82721       0.64368
                        -----------------------------------------
Magnitude (a.u.)       :      1.14849
Magnitude (Debye)      :      2.91923



--------------------
Rotational spectrum 
--------------------
 
Rotational constants in cm-1:     0.146910     0.030595     0.030337 
Rotational constants in MHz :  4404.254886   917.208976   909.477347 

 Dipole components along the rotational axes: 
x,y,z [a.u.] :    -0.381080     0.960881     0.500521 
x,y,z [Debye]:    -0.968628     2.442364     1.272222 

 

Timings for individual modules:

Sum of individual times         ...    24059.339 sec (= 400.989 min)
GTO integral calculation        ...       67.251 sec (=   1.121 min)   0.3 %
SCF iterations                  ...      291.215 sec (=   4.854 min)   1.2 %
SCF Gradient evaluation         ...       93.711 sec (=   1.562 min)   0.4 %
Geometry relaxation             ...        0.538 sec (=   0.009 min)   0.0 %
NEB Iterations                  ...    23606.624 sec (= 393.444 min)  98.1 %
                             ****ORCA TERMINATED NORMALLY****
TOTAL RUN TIME: 0 days 6 hours 41 minutes 8 seconds 176 msec
