17
	Energy:      20.3598460
C          9.58485        5.22085       13.97991
C          9.57771        5.49155       12.63240
C          9.53626        7.40803       13.80199
C          9.54560        6.90121       12.51588
C          9.50523        8.77594       14.27888
O          9.46210        9.73760       13.51092
O          9.56140        6.37346       14.69805
H          9.60486        4.30809       14.55962
H          9.59318        4.76343       11.83339
H          9.53138        7.49268       11.60990
C          9.53473        8.96325       15.78936
C          9.48395       10.42754       16.19305
H         10.45545        8.51452       16.17857
H          8.67657        8.44037       16.22589
H         10.32815       10.98216       15.76996
H          9.52220       10.52542       17.28224
H          8.56150       10.89994       15.83920
