17
	Energy:      24.8006786
C          9.42254        5.94066       12.12966
C          9.61569        5.25043       13.30117
C          9.51277        7.45954       13.71847
C          9.67386        6.22619       14.32680
C          9.47600        8.81817       14.23186
O          9.37245        9.81026       13.51113
O          9.36175        7.27392       12.36953
H          9.31357        5.64803       11.09429
H          9.70299        4.17758       13.40189
H          9.81772        6.04592       15.38315
C          9.57042        8.95450       15.74691
C          9.50412       10.40008       16.21076
H         10.51629        8.51424       16.08124
H          8.74255        8.39708       16.19929
H         10.33419       10.98329       15.79861
H          9.55854       10.45248       17.30251
H          8.56968       10.87368       15.89193
