13
Lattice="10.0 0.0 0.0 -8e-10 10.0 0.0 -8e-10 -8e-10 10.0" Properties=species:S:1:pos:R:3:forces:R:3 energy=5.553774740795878 free_energy=5.553774740795878 pbc="T T T"
C      -3.57731870       6.37954373       4.82677322      -3.15520792       0.65169251       0.22558256 
C      -5.11608251       6.41289530       4.90765259       1.61126367      -2.43338698      -0.25852604 
C      -5.94908673       5.11414491       4.84984686       2.79016707      -0.15218440      -0.02531660 
C      -5.27431175       3.72862694       4.77768202       1.26760895       2.29213232       0.26656719 
C      -3.74396778       3.59296385       4.86537915      -4.85059577      -1.09022455       3.87878226 
H      -3.02841607       5.39041994       4.70427568       0.75200389      -1.00288393      -0.22040721 
H      -2.98588065       7.35250426       4.88226009       0.32286441       0.51397052       0.02902246 
H      -5.64957377       7.41585756       5.00275660      -0.46948638       0.88363986       0.08376924 
H      -7.08708201       5.18040291       4.86157857      -1.01102146       0.05887216       0.01049235 
H      -5.92027939       2.79057540       4.72896371      -0.56762113      -0.83059754      -0.04270649 
H      -3.33787161       3.81760946       3.97959122       2.54691810       1.29567281      -5.31161621 
H      -3.47206065       2.52324524       5.15049657       0.25679144      -0.97746191       0.27370999 
H      -3.34573888       4.31021676       5.65692125       0.50631512       0.79075914       1.09064649 
13
Lattice="10.0 0.0 0.0 -8e-10 10.0 0.0 -8e-10 -8e-10 10.0" Properties=species:S:1:pos:R:3:forces:R:3 energy=5.16317531490494 free_energy=5.16317531490494 pbc="T T T"
C      -3.57731870       6.37954373       4.82677322      -3.15340859       0.63361573       0.22142865 
C      -5.11608251       6.41289530       4.90765259       1.61307443      -2.43628091      -0.25919009 
C      -5.94908673       5.11414491       4.84984686       2.79843675      -0.15732672      -0.02674698 
C      -5.27431175       3.72862694       4.77768202       1.51883167       2.28297041       0.23573956 
C      -3.74396778       3.59296385       4.86537915      -3.38996542      -0.24479439       0.58837588 
H      -3.02841607       5.39041994       4.70427568       0.74748637      -1.01835249      -0.22686379 
H      -2.98588065       7.35250426       4.88226009       0.32286468       0.51396037       0.02901451 
H      -5.64957377       7.41585756       5.00275660      -0.46948714       0.88364155       0.08376916 
H      -7.08708201       5.18040291       4.86157857      -1.01102818       0.05887556       0.01049329 
H      -5.92027939       2.79057540       4.72896371      -0.56751589      -0.83034252      -0.04262931 
H      -3.29726199       3.84007403       3.89101243       0.88927984       0.45601094      -1.83681051 
H      -3.47206065       2.52324524       5.15049657       0.23264729      -0.85911587       0.23117617 
H      -3.34573888       4.31021676       5.65692125       0.46878418       0.71713832       0.99224346 
13
Lattice="10.0 0.0 0.0 -8e-10 10.0 0.0 -8e-10 -8e-10 10.0" Properties=species:S:1:pos:R:3:forces:R:3 energy=5.085315298900591 free_energy=5.085315298900591 pbc="T T T"
C      -3.57731870       6.37954373       4.82677322      -3.15081490       0.61582005       0.21609706 
C      -5.11608251       6.41289530       4.90765259       1.61469585      -2.43869878      -0.25990842 
C      -5.94908673       5.11414491       4.84984686       2.80479560      -0.16111706      -0.02810060 
C      -5.27431175       3.72862694       4.77768202       1.69830103       2.27759070       0.20966404 
C      -3.74396778       3.59296385       4.86537915      -2.50735819       0.27083922      -1.41307333 
H      -3.02841607       5.39041994       4.70427568       0.74365131      -1.03214004      -0.23488768 
H      -2.98588065       7.35250426       4.88226009       0.32286464       0.51394983       0.02900684 
H      -5.64957377       7.41585756       5.00275660      -0.46948795       0.88364326       0.08376917 
H      -7.08708201       5.18040291       4.86157857      -1.01103460       0.05887864       0.01049440 
H      -5.92027939       2.79057540       4.72896371      -0.56750086      -0.83018542      -0.04255234 
H      -3.25665237       3.86253859       3.80243363      -0.13577474      -0.04627606       0.29862481 
H      -3.47206065       2.52324524       5.15049657       0.21531560      -0.77877363       0.20397653 
H      -3.34573888       4.31021676       5.65692125       0.44234722       0.66646928       0.92688952 
