Job execution start: Thu 28 Mar 09:44:15 GMT 2024
Shared library path: /apps/chemistry/orca/5.0.0/el7:/apps/libraries/openmpi/4.1.1/el7/AVX512/gnu-9.2/lib:/apps/compilers/gnu/9.2.0/lib64:/apps/compilers/gnu/9.2.0/lib:/opt/slurm/23.02.6/el7/lib
Slurm Job ID is: 56180374
Slurm Job name is: orca.hawk.skl.nebjob.sh
ccs[0008,0112]

                                        *****************
                                        * O   R   C   A *
                                        *****************

                                            #,                                       
                                            ###                                      
                                            ####                                     
                                            #####                                    
                                            ######                                   
                                           ########,                                 
                                     ,,################,,,,,                         
                               ,,#################################,,                 
                          ,,##########################################,,             
                       ,#########################################, ''#####,          
                    ,#############################################,,   '####,        
                  ,##################################################,,,,####,       
                ,###########''''           ''''###############################       
              ,#####''   ,,,,##########,,,,          '''####'''          '####       
            ,##' ,,,,###########################,,,                        '##       
           ' ,,###''''                  '''############,,,                           
         ,,##''                                '''############,,,,        ,,,,,,###''
      ,#''                                            '''#######################'''  
     '                                                          ''''####''''         
             ,#######,   #######,   ,#######,      ##                                
            ,#'     '#,  ##    ##  ,#'     '#,    #''#        ######   ,####,        
            ##       ##  ##   ,#'  ##            #'  '#       #        #'  '#        
            ##       ##  #######   ##           ,######,      #####,   #    #        
            '#,     ,#'  ##    ##  '#,     ,#' ,#      #,         ##   #,  ,#        
             '#######'   ##     ##  '#######'  #'      '#     #####' # '####'        



                  #######################################################
                  #                        -***-                        #
                  #          Department of theory and spectroscopy      #
                  #    Directorship and core code : Frank Neese         #
                  #        Max Planck Institute fuer Kohlenforschung    #
                  #                Kaiser Wilhelm Platz 1               #
                  #                 D-45470 Muelheim/Ruhr               #
                  #                      Germany                        #
                  #                                                     #
                  #                  All rights reserved                #
                  #                        -***-                        #
                  #######################################################


                         Program Version 5.0.0 -  RELEASE  -
                                (SVN: $Rev: 19529$)
                ($Date: 2021-06-28 11:36:33 +0200 (Mo, 28 Jun 2021) $)


 With contributions from (in alphabetic order):
   Daniel Aravena         : Magnetic Suceptibility
   Michael Atanasov       : Ab Initio Ligand Field Theory (pilot matlab implementation)
   Alexander A. Auer      : GIAO ZORA, VPT2 properties, NMR spectrum
   Ute Becker             : Parallelization
   Giovanni Bistoni       : ED, misc. LED, open-shell LED, HFLD
   Martin Brehm           : Molecular dynamics
   Dmytro Bykov           : SCF Hessian
   Vijay G. Chilkuri      : MRCI spin determinant printing, contributions to CSF-ICE
   Dipayan Datta          : RHF DLPNO-CCSD density
   Achintya Kumar Dutta   : EOM-CC, STEOM-CC
   Dmitry Ganyushin       : Spin-Orbit,Spin-Spin,Magnetic field MRCI
   Miquel Garcia          : C-PCM Hessian, Gaussian charge scheme
   Yang Guo               : DLPNO-NEVPT2, F12-NEVPT2, CIM, IAO-localization
   Andreas Hansen         : Spin unrestricted coupled pair/coupled cluster methods
   Benjamin Helmich-Paris : MC-RPA, TRAH-SCF, COSX integrals
   Lee Huntington         : MR-EOM, pCC
   Robert Izsak           : Overlap fitted RIJCOSX, COSX-SCS-MP3, EOM
   Marcus Kettner         : VPT2
   Christian Kollmar      : KDIIS, OOCD, Brueckner-CCSD(T), CCSD density, CASPT2, CASPT2-K
   Simone Kossmann        : Meta GGA functionals, TD-DFT gradient, OOMP2, MP2 Hessian
   Martin Krupicka        : Initial AUTO-CI
   Lucas Lang             : DCDCAS
   Marvin Lechner         : AUTO-CI (C++ implementation), FIC-MRCC
   Dagmar Lenk            : GEPOL surface, SMD
   Dimitrios Liakos       : Extrapolation schemes; Compound Job, initial MDCI parallelization
   Dimitrios Manganas     : Further ROCIS development; embedding schemes
   Dimitrios Pantazis     : SARC Basis sets
   Anastasios Papadopoulos: AUTO-CI, single reference methods and gradients
   Taras Petrenko         : DFT Hessian,TD-DFT gradient, ASA, ECA, R-Raman, ABS, FL, XAS/XES, NRVS
   Peter Pinski           : DLPNO-MP2, DLPNO-MP2 Gradient
   Christoph Reimann      : Effective Core Potentials
   Marius Retegan         : Local ZFS, SOC
   Christoph Riplinger    : Optimizer, TS searches, QM/MM, DLPNO-CCSD(T), (RO)-DLPNO pert. Triples
   Tobias Risthaus        : Range-separated hybrids, TD-DFT gradient, RPA, STAB
   Michael Roemelt        : Original ROCIS implementation
   Masaaki Saitow         : Open-shell DLPNO-CCSD energy and density
   Barbara Sandhoefer     : DKH picture change effects
   Avijit Sen             : IP-ROCIS
   Kantharuban Sivalingam : CASSCF convergence, NEVPT2, FIC-MRCI
   Bernardo de Souza      : ESD, SOC TD-DFT
   Georgi Stoychev        : AutoAux, RI-MP2 NMR
   Willem Van den Heuvel  : Paramagnetic NMR
   Boris Wezisla          : Elementary symmetry handling
   Frank Wennmohs         : Technical directorship


 We gratefully acknowledge several colleagues who have allowed us to
 interface, adapt or use parts of their codes:
   Stefan Grimme, W. Hujo, H. Kruse, P. Pracht,  : VdW corrections, initial TS optimization,
                  C. Bannwarth, S. Ehlert          DFT functionals, gCP, sTDA/sTD-DF
   Ed Valeev, F. Pavosevic, A. Kumar             : LibInt (2-el integral package), F12 methods
   Garnet Chan, S. Sharma, J. Yang, R. Olivares  : DMRG
   Ulf Ekstrom                                   : XCFun DFT Library
   Mihaly Kallay                                 : mrcc  (arbitrary order and MRCC methods)
   Jiri Pittner, Ondrej Demel                    : Mk-CCSD
   Frank Weinhold                                : gennbo (NPA and NBO analysis)
   Christopher J. Cramer and Donald G. Truhlar   : smd solvation model
   Lars Goerigk                                  : TD-DFT with DH, B97 family of functionals
   V. Asgeirsson, H. Jonsson                     : NEB implementation
   FAccTs GmbH                                   : IRC, NEB, NEB-TS, DLPNO-Multilevel, CI-OPT
                                                   MM, QMMM, 2- and 3-layer-ONIOM, Crystal-QMMM,
                                                   LR-CPCM, SF, NACMEs, symmetry and pop. for TD-DFT,
                                                   nearIR, NL-DFT gradient (VV10), updates on ESD,
                                                   ML-optimized integration grids
   S Lehtola, MJT Oliveira, MAL Marques          : LibXC Library
   Liviu Ungur et al                             : ANISO software


 Your calculation uses the libint2 library for the computation of 2-el integrals
 For citations please refer to: http://libint.valeyev.net

 Your ORCA version has been built with support for libXC version: 5.1.0
 For citations please refer to: https://tddft.org/programs/libxc/

 This ORCA versions uses:
   CBLAS   interface :  Fast vector & matrix operations
   LAPACKE interface :  Fast linear algebra routines
   SCALAPACK package :  Parallel linear algebra routines
   Shared memory     :  Shared parallel matrices
   BLAS/LAPACK       :  OpenBLAS 0.3.15  USE64BITINT DYNAMIC_ARCH NO_AFFINITY SkylakeX SINGLE_THREADED
        Core in use  :  SkylakeX
   Copyright (c) 2011-2014, The OpenBLAS Project




***************************************
The coordinates will be read from file: react.xyz
***************************************


Your calculation utilizes the DFT-NL dispersion correction.
Cite in your paper:
Vydrov, O. A.; Van Voorhis, T. J. Chem. Phys. 2010, 133, 244103
Hujo, W.; Grimme, S. J. Chem. Theory Comput. 2011, 7, 3866 
   

Your calculation utilizes a Nudged-Elastic-Band implementation
 by V.Asgeirsson, C. Riplinger & H. Jonsson
Please cite in your paper:
 V. Asgeirsson et al., in prep. (2019)
   

================================================================================

----- Orbital basis set information -----
Your calculation utilizes the basis: def2-TZVP
   F. Weigend and R. Ahlrichs, Phys. Chem. Chem. Phys. 7, 3297 (2005).

----- AuxJ basis set information -----
Your calculation utilizes the auxiliary basis: def2/J
   F. Weigend, Phys. Chem. Chem. Phys. 8, 1057 (2006).

================================================================================
                                        WARNINGS
                       Please study these warnings very carefully!
================================================================================


WARNING: Geometry Optimization
  ===> : Switching off AutoStart
         For restart on a previous wavefunction, please use MOREAD

WARNING: Analytic gradients for DFT-NL dispersion can only be done using the self-consistent method,
  ===>   Switching to SCNL

INFO   : the flag for use of the SHARK integral package has been found!

================================================================================
                                       INPUT FILE
================================================================================
NAME = /scratch/c.c21095646/orca.56180374/orca.inp
|  1> !wB97X-V def2-TZVP NEB-TS
|  2> %NEB NEB_END_XYZFILE "prod.xyz" END
|  3> %pal
|  4> nprocs 40
|  5> end
|  6> * xyzfile 0 1 react.xyz
|  7> 
|  8> 
|  9>                          ****END OF INPUT****
================================================================================


------------------------------------------------------------------------------- 
                         Nudged Elastic Band Calculation                       
------------------------------------------------------------------------------- 

Number of images (incl. end points)     ....  10
Number of intermediate images           ....  8
Number of optimized images              ....  8
Optimization of end points before NEB   ....  NO
Use existing gbw files for MO input     ....  NO
Number of atoms                         ....  11
Number of (active) degrees of freedom   ....  33
Constrained atoms                       ....  None

-----------------------------------------
  REACTANT (ANGSTROEM)
-----------------------------------------
C      9.550070     6.157228    11.986086 
C      9.550069     5.290606    13.032386 
C      9.550053     7.397061    13.768700 
C      9.550063     6.105083    14.202652 
C      9.550035     8.651175    14.521276 
O      9.550082     9.753614    14.032906 
O      9.550060     7.435088    12.410038 
H      9.550075     6.015667    10.915762 
H      9.550074     4.212840    12.974554 
H      9.550062     5.781972    15.233939 
H      9.550097     8.499969    15.620441 

-----------------------------------------
  PRODUCT (ANGSTROEM)
-----------------------------------------
C      9.574187     5.210723    13.857638 
C      9.579254     5.540109    12.539317 
C      9.539859     7.386259    13.785858 
C      9.556732     6.964417    12.492409 
C      9.512108     8.712912    14.401880 
O      9.501336     9.741524    13.769501 
O      9.550728     6.313647    14.631462 
H      9.585258     4.265409    14.378837 
H      9.596680     4.852647    11.707050 
H      9.553126     7.606529    11.624363 
H      9.501473     8.706127    15.510425 



----------------------
NEB settings
----------------------
Method type                             ....  climbing image
Threshold for climbing image            ....  2.00e-02 Eh/Bohr 
Free endpoints                          ....  off 
Tangent type                            ....  improved 
Number of intermediate images           ....  8 
Number of images free to move           ....  8 
Spring type for image distribution      ....  distance between adjacent images 
Spring constant                         ....  energy weighted (0.0100 -to- 0.1000) Eh/Bohr^2 
Spring force perp. to the path          ....  none 
Generation of initial path              ....  image dependent pair potential 
Initial path via TS guess               ....  off 

Minimization of RMSD: Rotation          ....  always 
Minimization of RMSD: Translation type  ....  centroid 
Center fixed to origin                  ....  true 
Remove external force                   ....  true 

Reparametrization of the path           ....  off 
Convergence thresholds:
Convergence monitored for               ....  all images
Scaling factor                          ....  10.00

Convergence parameters for regular images:
               Max(|Fp|)                ....  2.00e-02 Eh/Bohr
               RMS(Fp)                  ....  1.00e-02 Eh/Bohr

Convergence parameters for climbing image:
               Max(|F|)                 ....  2.00e-03 Eh/Bohr
               RMS(F)                   ....  1.00e-03 Eh/Bohr
Optimization method:
Method                                  ....  L-BFGS
Max. iterations                         ....  500 
Step size                               ....  1.00 
Maximum allowed step size               ....  0.10 Bohr

LBFGS parameters: 
               Memory                   ....  20 
               Initial step size        ....  0.0010 
               Estimate curvature       ....  YES 
               Reset on maxmove         ....  YES 
               Reparam. on reset        ....  NO 
Generation of  the initial path:
Minimize RMSD between reactant and product configurations     .... done
       RMSD before minimization         ....  2.2825 Bohr
       RMSD after minimization          ....  0.9340 Bohr
Performing linear interpolation         ....  done
Interpolation using                     ....  IDPP (Image Dependent Pair Potential)
IDPP-Settings:
       Remove global transl. and rot.   ...   true
       Convergence tolerance            ....  0.0100 1/Ang.^3
       Max. numer of iterations         ....    7000
       Spring constant                  ....  1.0000 1/Ang.^4
       Time step                        ....  0.0100 fs
       Max. movement per iteration      ....  0.0500 Ang.
       Full print                       ....  false 
idpp initial path generation successfully converged in 591 iterations
Displacement along initial path:              9.9747 Bohr
Writing initial trajectory to file      ....  /scratch/c.c21095646/orca.56180374/orca_initial_path_trj.xyz



----------------------
NEB OPTIMIZATION      
----------------------

Following output files will be written:
Energy profile during opt. written to    ....  /scratch/c.c21095646/orca.56180374/orca.interp
Optimization log-file                    ....  /scratch/c.c21095646/orca.56180374/orca.NEB.log
Current trajectory will be written to    ....  /scratch/c.c21095646/orca.56180374/orca_MEP_trj.xyz
       and to allxyz file                ....  /scratch/c.c21095646/orca.56180374/orca_MEP.allxyz
       and individual images to xyz file ....  /scratch/c.c21095646/orca.56180374/orca_im{NIm}.xyz
Trajectory history will be written to    ....  /scratch/c.c21095646/orca.56180374/orca_MEP_ALL_trj.xyz
Converged CI will be written to          ....  /scratch/c.c21095646/orca.56180374/orca_NEB-CI_converged.xyz
Converged TS will be written to          ....  /scratch/c.c21095646/orca.56180374/orca_NEB-TS_converged.xyz

Single point energy and gradient calculation of reactant and
product configurations (have to be performed only once)
Properties of fixed NEB end points:
               Reactant:
                         E               ....   -343.376592 Eh
                         RMS(F)          ....      0.000029 Eh/Bohr
                         MAX(|F|)        ....      0.000073 Eh/Bohr
               Product:
                         E               ....   -343.377677 Eh
                         RMS(F)          ....      0.000100 Eh/Bohr
                         MAX(|F|)        ....      0.000210 Eh/Bohr



Starting iterations:

Optim.  Iteration  HEI  E(HEI)-E(0)  max(|Fp|)   RMS(Fp)    dS
Switch-on CI threshold               0.020000 
   LBFGS     0      6    0.307066    0.078689   0.014823  9.9747       
   LBFGS     1      6    0.296445    0.045571   0.009218  9.9006       
   LBFGS     2      3    0.292062    0.047611   0.009471  9.9593       
   LBFGS     3      3    0.288876    0.041306   0.008606  10.0984       
   LBFGS     4      3    0.289417    0.036673   0.006827  10.2678       
   LBFGS     5      3    0.290942    0.030259   0.006529  10.4362       
   LBFGS     6      3    0.293257    0.032363   0.006539  10.7176       
   LBFGS     7      3    0.294355    0.035892   0.008079  10.8801       
   LBFGS     8      6    0.295607    0.030131   0.006735  11.0866       
   LBFGS     9      6    0.299050    0.031146   0.007149  11.5654       
   LBFGS    10      6    0.299361    0.042631   0.007974  11.8002       
   LBFGS    11      3    0.301310    0.030212   0.007487  12.0132       
   LBFGS    12      3    0.304564    0.031867   0.008688  12.3526       
   LBFGS    13      3    0.305746    0.034721   0.007309  12.3464       
   LBFGS    14      3    0.308035    0.026519   0.005880  12.4587       
   LBFGS    15      3    0.311806    0.026604   0.006290  12.6551       
   LBFGS    16      3    0.314170    0.042918   0.007309  12.7417       
   LBFGS    17      3    0.317168    0.025064   0.005719  12.8106       
   LBFGS    18      3    0.322317    0.027670   0.006120  12.9310       
   LBFGS    19      3    0.324676    0.032120   0.006003  12.8511       
   LBFGS    20      3    0.327248    0.023282   0.004882  12.8611       
   LBFGS    21      3    0.330771    0.017027   0.004558  12.9057       

Image  3 will be converted to a climbing image in the next iteration (max(|Fp|) < 0.0200) 

Optim.  Iteration  CI   E(CI)-E(0)   max(|Fp|)   RMS(Fp)    dS     max(|FCI|)   RMS(FCI)
Convergence thresholds               0.020000   0.010000            0.002000    0.001000 
   LBFGS    22      3    0.331078    0.014622   0.002945  12.9251    0.029017    0.008644       
   LBFGS    23      3    0.337977    0.024781   0.005606  13.0418    0.030724    0.010785       
   LBFGS    24      3    0.340910    0.023570   0.004576  13.0831    0.023212    0.009068       
   LBFGS    25      3    0.343885    0.018333   0.003819  13.1601    0.021390    0.008292       
   LBFGS    26      3    0.347800    0.026645   0.004452  13.2996    0.020713    0.007552       
   LBFGS    27      3    0.349544    0.028996   0.004805  13.4565    0.020068    0.006851       
   LBFGS    28      3    0.351575    0.018613   0.004082  13.5945    0.022225    0.007045       
   LBFGS    29      3    0.354299    0.022392   0.004710  13.8150    0.022101    0.007150       
   LBFGS    30      3    0.354701    0.020398   0.003752  13.8996    0.013946    0.004938       
   LBFGS    31      3    0.355800    0.022871   0.003089  14.0159    0.015032    0.005183       
   LBFGS    32      3    0.357823    0.039053   0.004731  14.2726    0.015580    0.005436       
   LBFGS    33      3    0.357883    0.022353   0.003679  14.3540    0.011651    0.003745       
   LBFGS    34      3    0.358313    0.015490   0.002266  14.4270    0.011290    0.003720       
   LBFGS    35      3    0.360017    0.017397   0.003233  14.6825    0.013738    0.004680       
   LBFGS    36      3    0.360376    0.020496   0.003064  14.7790    0.010200    0.003513       
   LBFGS    37      3    0.361049    0.021598   0.002628  14.9001    0.011187    0.003859       
   LBFGS    38      3    0.362265    0.031452   0.004005  15.1569    0.010325    0.004095       

Possible intermediate minimum found at image(s): 5 
  => have a look at the .interp file.
  => it is often a good idea to divide the path calculation into smaller fragments. 

   LBFGS    39      3    0.362238    0.022399   0.003143  15.2240    0.008765    0.002745       
   LBFGS    40      3    0.362442    0.012033   0.001811  15.2832    0.008575    0.002645       
   LBFGS    41      3    0.363537    0.014783   0.002765  15.5274    0.009106    0.003689       
   LBFGS    42      3    0.363647    0.022170   0.002852  15.6072    0.007875    0.002493       
   LBFGS    43      3    0.364048    0.013528   0.001931  15.7036    0.007790    0.002979       
   LBFGS    44      3    0.364789    0.022883   0.003286  15.9197    0.007241    0.003355       
   LBFGS    45      3    0.365539    0.026380   0.004118  16.1742    0.008740    0.003489       
   LBFGS    46      3    0.365415    0.020249   0.002782  16.2190    0.006651    0.002251       
   LBFGS    47      3    0.365472    0.009818   0.001492  16.2602    0.006572    0.001906       
   LBFGS    48      3    0.365997    0.008628   0.001847  16.4316    0.006294    0.002550       
   LBFGS    49      3    0.366670    0.018026   0.003203  16.6655    0.009379    0.003241       
   LBFGS    50      3    0.366540    0.024477   0.002695  16.7129    0.005877    0.001736       
   LBFGS    51      3    0.366641    0.008193   0.001092  16.7646    0.005807    0.001694       
   LBFGS    52      3    0.366946    0.008081   0.001532  16.8917    0.005631    0.002111       
   LBFGS    53      3    0.367504    0.019924   0.002967  17.1484    0.007483    0.002591       
   LBFGS    54      3    0.367434    0.021782   0.002439  17.1882    0.005242    0.001596       
   LBFGS    55      3    0.367489    0.010524   0.001186  17.2272    0.005195    0.001405       
   LBFGS    56      3    0.367779    0.007128   0.001401  17.3572    0.005053    0.001888       
   LBFGS    57      3    0.368245    0.017057   0.002749  17.5894    0.007189    0.002413       
   LBFGS    58      3    0.368174    0.021122   0.002272  17.6321    0.004743    0.001369       
   LBFGS    59      3    0.368225    0.009170   0.001017  17.6753    0.004693    0.001250       
   LBFGS    60      3    0.368432    0.006621   0.001181  17.7973    0.004562    0.001604       
   LBFGS    61      3    0.368804    0.016591   0.002465  18.0351    0.005748    0.001981       
   LBFGS    62      3    0.369157    0.021959   0.003155  18.2938    0.006492    0.002130       
   LBFGS    63      3    0.369092    0.019512   0.002320  18.3182    0.004060    0.001271       
   LBFGS    64      3    0.369110    0.009776   0.001138  18.3441    0.004039    0.001022       
   LBFGS    65      3    0.369243    0.004309   0.000835  18.4318    0.003961    0.001220       
   LBFGS    66      3    0.369414    0.009804   0.001625  18.5618    0.003841    0.001355       
   LBFGS    67      3    0.369691    0.014832   0.002368  18.8014    0.003721    0.001427       
   LBFGS    68      3    0.369684    0.016699   0.001946  18.8379    0.003596    0.000958       
   LBFGS    69      3    0.369710    0.008761   0.001006  18.8730    0.003565    0.000880       

Possible intermediate minimum found at image(s): 5 
  => have a look at the .interp file.
  => it is often a good idea to divide the path calculation into smaller fragments. 

   LBFGS    70      3    0.369827    0.005080   0.000840  18.9890    0.003472    0.001017       
   LBFGS    71      3    0.369980    0.010059   0.001627  19.1520    0.003344    0.001072       
   LBFGS    72      3    0.370216    0.013738   0.002323  19.4224    0.003145    0.001083       
   LBFGS    73      3    0.370223    0.015274   0.001940  19.4441    0.003128    0.000807       
   LBFGS    74      3    0.370245    0.008222   0.001017  19.4676    0.003109    0.000756       
   LBFGS    75      3    0.370327    0.004315   0.000695  19.5536    0.003040    0.000807       
   LBFGS    76      3    0.370426    0.008604   0.001346  19.6728    0.002954    0.000802       
   LBFGS    77      3    0.370613    0.011932   0.002048  19.9190    0.002782    0.000773       
   LBFGS    78      3    0.370627    0.014108   0.001779  19.9532    0.002761    0.000684       
   LBFGS    79      3    0.370646    0.008057   0.001007  19.9859    0.002742    0.000662       
   LBFGS    80      3    0.370717    0.004226   0.000686  20.1035    0.002673    0.000666       
   LBFGS    81      3    0.370799    0.008328   0.001318  20.2401    0.002599    0.000657       
   LBFGS    82      3    0.370964    0.013094   0.001993  20.5280    0.002442    0.000622       
   LBFGS    83      3    0.370978    0.014646   0.001775  20.5477    0.002428    0.000586       
   LBFGS    84      3    0.370993    0.008871   0.001040  20.5692    0.002413    0.000574       
   LBFGS    85      3    0.371050    0.003517   0.000580  20.6633    0.002358    0.000567       
   LBFGS    86      3    0.371111    0.006369   0.001082  20.7784    0.002297    0.000561       
   LBFGS    87      3    0.371239    0.011358   0.001705  21.0363    0.002172    0.000558       
   LBFGS    88      3    0.371252    0.015506   0.001683  21.0729    0.002159    0.000544       
   LBFGS    89      3    0.371264    0.010161   0.001031  21.1081    0.002145    0.000525       
   LBFGS    90      3    0.371318    0.003583   0.000666  21.2497    0.002089    0.000518       
   LBFGS    91      3    0.371375    0.009075   0.001259  21.3998    0.002030    0.000538       
   LBFGS    92      3    0.371486    0.013526   0.001867  21.7055    0.001919    0.000481       

                                .--------------------.
          ----------------------| CI-NEB convergence |-------------------------
          Item                value                   Tolerance       Converged
          ---------------------------------------------------------------------
          RMS(Fp)             0.0018669368            0.0100000000      YES
          MAX(|Fp|)           0.0135257060            0.0200000000      YES
          RMS(FCI)            0.0004809169            0.0010000000      YES
          MAX(|FCI|)          0.0019189476            0.0020000000      YES
          ---------------------------------------------------------------------

All gradients are converged but SCF not converged for image(s): 5 
  => will try one more iteration.
     If SCF persists to fail to converge the calculation will be aborted. 


The elastic band and climbing image have converged successfully to a MEP in 92 iterations!


                    *********************H U R R A Y*********************
                    ***        THE NEB OPTIMIZATION HAS CONVERGED     ***
                    *****************************************************



---------------------------------------------------------------
                         PATH SUMMARY              
---------------------------------------------------------------
All forces in Eh/Bohr.

Image Dist.(Ang.)    E(Eh)   dE(kcal/mol)  max(|Fp|)  RMS(Fp)
  0     0.000    -343.37659      0.00       0.00008   0.00003
  1     1.471    -343.14902    142.80       0.00688   0.00278
  2     2.475    -343.02099    223.14       0.00117   0.00039
  3     3.440    -343.00511    233.11       0.00039   0.00017 <= CI
  4     4.562    -343.20142    109.92       0.00018   0.00008
  5     6.757    -356.97955    -8535.97       0.00041   0.00016
  6     7.860    -343.00599    232.56       0.00036   0.00018
  7     8.930    -343.01767    225.23       0.00103   0.00043
  8    10.016    -343.12603    157.23       0.01353   0.00482
  9    11.486    -343.37768     -0.68       0.00024   0.00010

Straight line distance between images along the path:
        D( 0- 1) =   1.4710 Ang.
        D( 1- 2) =   1.0038 Ang.
        D( 2- 3) =   0.9652 Ang.
        D( 3- 4) =   1.1221 Ang.
        D( 4- 5) =   2.1945 Ang.
        D( 5- 6) =   1.1033 Ang.
        D( 6- 7) =   1.0699 Ang.
        D( 7- 8) =   1.0860 Ang.
        D( 8- 9) =   1.4702 Ang.

---------------------------------------------------------------
               INFORMATION ABOUT SADDLE POINT     
---------------------------------------------------------------

Climbing image                            ....  3 
Energy                                    ....  -343.00510609 Eh
Max. abs. force                           ....  1.9189e-03 Eh/Bohr

-----------------------------------------
  SADDLE POINT (ANGSTROEM)
-----------------------------------------
C      0.011573    -1.047961    -1.672066 
C     -0.013860    -1.790855    -0.508420 
C      0.032115     0.435176    -0.047803 
C     -0.000643    -0.845051     0.516488 
C      0.056027     1.722800     0.444183 
O     -0.134522     4.910479     2.735636 
O      0.038134     0.242416    -1.449435 
H      0.013466    -1.362896    -2.707679 
H     -0.038009    -2.868167    -0.435552 
H     -0.013654    -1.030816     1.582115 
H      0.049373     1.634874     1.542531 

-----------------------------------------
  FORCES (Eh/Bohr)
-----------------------------------------
C      0.000041     0.000262    -0.000013 
C     -0.000020    -0.000060     0.000085 
C      0.000023     0.000245     0.000445 
C      0.000027     0.000358     0.000186 
C     -0.000114     0.000464     0.000587 
O      0.000116    -0.001919    -0.001375 
O     -0.000064    -0.000021     0.000558 
H     -0.000018     0.000166    -0.000208 
H     -0.000004     0.000411    -0.000049 
H      0.000056     0.000190    -0.000196 
H     -0.000090    -0.000340     0.000459 

-----------------------------------------
  UNIT TANGENT
-----------------------------------------
C      0.001276    -0.112048    -0.037817 
C     -0.003879    -0.083705    -0.020090 
C      0.007907    -0.080681    -0.068777 
C     -0.002451    -0.060437    -0.038913 
C      0.030118    -0.041573    -0.171330 
O     -0.044763     0.693116     0.617353 
O      0.010416    -0.110853    -0.064708 
H     -0.000634    -0.124556    -0.033385 
H     -0.008162    -0.080512     0.004622 
H     -0.005311    -0.029046    -0.033079 
H      0.015482     0.030297    -0.153878 
 => Unit tangent is an approximation to the TS mode at the saddle point

Next a TS optimization is performed on the CI from the NEB run.

         *************************************************************
         *                       TS OPTIMIZATION                     *
         *************************************************************


Following output files will be written:
Converged TS will be written to          ....  /scratch/c.c21095646/orca.56180374/orca_NEB-TS_converged.xyz
                                         ....  /scratch/c.c21095646/orca.56180374/orca.xyz
Current trajectory will be written to    ....  /scratch/c.c21095646/orca.56180374/orca_trj.xyz
Initial Hessian will be stored in        ....  /scratch/c.c21095646/orca.56180374/orca.appr.hess
Geometry optimization settings:
Update method            Update   .... Bofill
Choice of coordinates    CoordSys .... Z-matrix Internals
Initial Hessian          InHess   .... Read

Convergence Tolerances:
Energy Change            TolE     ....  5.0000e-06 Eh
Max. Gradient            TolMAXG  ....  3.0000e-04 Eh/bohr
RMS Gradient             TolRMSG  ....  1.0000e-04 Eh/bohr
Max. Displacement        TolMAXD  ....  4.0000e-03 bohr
RMS Displacement         TolRMSD  ....  2.0000e-03 bohr
Strict Convergence                ....  False
------------------------------------------------------------------------------
                        ORCA OPTIMIZATION COORDINATE SETUP
------------------------------------------------------------------------------

The optimization will be done in new redundant internal coordinates
Making redundant internal coordinates   ...  (new redundants) done
Following TS mode number                ...     0
TS-active-atoms for coordinate setup... 5 
Evaluating the initial hessian          ... (Reading Exact Hessian)...  
InHessName: /scratch/c.c21095646/orca.56180374/orca.appr.hess	The file </scratch/c.c21095646/orca.56180374/orca.appr.hess> is opened as a .hess file
done
done
Diagonalizing the Hessian               .... done
Dimension of the hessian                .... 52
Lowest eigenvalues of the non projected Hessian:
 -0.002673078 -0.000000000 -0.000000000 -0.000000000 -0.000000000
done
Evaluating the coordinates              ...  done
Calculating the B-matrix                .... done
Calculating the G-matrix                .... done
Diagonalizing the G-matrix              .... done
The first mode is                       ....   25
The number of degrees of freedom        ....   27

    -----------------------------------------------------------------
                    Redundant Internal Coordinates


    -----------------------------------------------------------------
         Definition                    Initial Value    d2E/dq (diagonal element)
    -----------------------------------------------------------------
      1. B(C   1,C   0)                  1.3808         0.568404   
      2. B(C   3,C   1)                  1.3947         0.551220   
      3. B(C   3,C   2)                  1.3995         0.536956   
      4. B(C   4,C   2)                  1.3786         0.650538   
      5. B(O   5,C   4)                  3.9304         0.011184   
      6. B(O   6,C   2)                  1.4148         0.461544   
      7. B(O   6,C   0)                  1.3097         0.664395   
      8. B(H   7,C   0)                  1.0824         0.370263   
      9. B(H   8,C   1)                  1.0800         0.373594   
     10. B(H   9,C   3)                  1.0818         0.371152   
     11. B(H  10,O   5)                  3.4910         0.022290   
     12. B(H  10,C   4)                  1.1019         0.303284   
     13. A(C   1,C   0,O   6)          112.7802         0.163600   
     14. A(C   1,C   0,H   7)          130.5243         0.221029   
     15. A(O   6,C   0,H   7)          116.6955         0.222193   
     16. A(C   3,C   1,H   8)          128.8339         0.212835   
     17. A(C   0,C   1,H   8)          126.4361         0.213327   
     18. A(C   0,C   1,C   3)          104.7301         0.140179   
     19. A(C   3,C   2,C   4)          135.3106         0.259542   
     20. A(C   4,C   2,O   6)          118.7320         0.264065   
     21. A(C   3,C   2,O   6)          105.9574         0.153156   
     22. A(C   2,C   3,H   9)          123.6815         0.213424   
     23. A(C   1,C   3,H   9)          127.3965         0.214117   
     24. A(C   1,C   3,C   2)          108.9219         0.147524   
     25. A(C   2,C   4,O   5)          164.7320         0.100756   
     26. A(C   2,C   4,H  10)          106.3252         0.125939   
     27. A(O   5,C   4,H  10)           58.8883         0.014128   
     28. A(C   4,O   5,H  10)           15.6783         0.006591   
     29. A(C   0,O   6,C   2)          107.6104         0.180808   
     30. A(C   4,H  10,O   5)          105.4333         0.027298   
     31. D(H   8,C   1,C   0,H   7)     -0.0430         0.015803   
     32. D(C   3,C   1,C   0,O   6)     -0.0218         0.009404   
     33. D(H   8,C   1,C   0,O   6)   -179.9962         0.010042   
     34. D(C   3,C   1,C   0,H   7)    179.9314         0.014139   
     35. D(C   2,C   3,C   1,H   8)    179.9759         0.009774   
     36. D(H   9,C   3,C   1,C   0)    179.9514         0.009052   
     37. D(H   9,C   3,C   2,O   6)   -179.9357         0.008199   
     38. D(C   1,C   3,C   2,O   6)      0.0157         0.006713   
     39. D(C   1,C   3,C   2,C   4)    179.9431         0.008796   
     40. D(C   2,C   3,C   1,C   0)      0.0023         0.007568   
     41. D(H   9,C   3,C   1,H   8)     -0.0750         0.012402   
     42. D(H   9,C   3,C   2,C   4)     -0.0083         0.010776   
     43. D(O   5,C   4,C   2,C   3)    -13.4377         0.012162   
     44. D(H  10,C   4,C   2,O   6)   -179.8288         0.012216   
     45. D(H  10,C   4,C   2,C   3)      0.2509         0.012215   
     46. D(O   5,C   4,C   2,O   6)    166.4827         0.012145   
     47. D(H  10,O   5,C   4,C   2)     15.3823         0.009441   
     48. D(C   0,O   6,C   2,C   4)   -179.9705         0.006880   
     49. D(C   0,O   6,C   2,C   3)     -0.0287         0.006977   
     50. D(C   2,O   6,C   0,H   7)   -179.9281         0.011228   
     51. D(C   2,O   6,C   0,C   1)      0.0321         0.009184   
     52. D(O   5,H  10,C   4,C   2)   -175.8260         0.006695   
    -----------------------------------------------------------------

Number of atoms                         .... 11
Number of degrees of freedom            .... 52

         *************************************************************
         *                GEOMETRY OPTIMIZATION CYCLE   1            *
         *************************************************************


           ************************************************************
           *        Program running with 40 parallel MPI-processes    *
           *              working on a common directory               *
           ************************************************************
------------------------------------------------------------------------------
                           ORCA GTO INTEGRAL CALCULATION
                           -- RI-GTO INTEGRALS CHOSEN --
------------------------------------------------------------------------------
------------------------------------------------------------------------------
                   ___                                                        
                  /   \      - P O W E R E D   B Y -                         
                 /     \                                                     
                 |  |  |   _    _      __       _____    __    __             
                 |  |  |  | |  | |    /  \     |  _  \  |  |  /  |          
                  \  \/   | |  | |   /    \    | | | |  |  | /  /          
                 / \  \   | |__| |  /  /\  \   | |_| |  |  |/  /          
                |  |  |   |  __  | /  /__\  \  |    /   |      \           
                |  |  |   | |  | | |   __   |  |    \   |  |\   \          
                \     /   | |  | | |  |  |  |  | |\  \  |  | \   \       
                 \___/    |_|  |_| |__|  |__|  |_| \__\ |__|  \__/        
                                                                              
                      - O R C A' S   B I G   F R I E N D -                    
                                      &                                       
                       - I N T E G R A L  F E E D E R -                       
                                                                              
 v1 FN, 2020, v2 2021                                                         
------------------------------------------------------------------------------


Reading SHARK input file /scratch/c.c21095646/orca.56180374/orca.SHARKINP.tmp ... ok
----------------------
SHARK INTEGRAL PACKAGE
----------------------

Number of atoms                             ...     11
Number of basis functions                   ...    241
Number of shells                            ...     93
Maximum angular momentum                    ...      3
Integral batch strategy                     ... SHARK/LIBINT Hybrid
RI-J (if used) integral strategy            ... SPLIT-RIJ (Revised 2003 algorithm where possible)
Printlevel                                  ...      1
Contraction scheme used                     ... SEGMENTED contraction
Coulomb Range Separation                    ... NOT USED
Exchange Range Separation                   ... Long Range
   Mu parameter                             ...  0.300000
   Scaling (regular/separated)              ...  0.167000  0.833000
Finite Nucleus Model                        ... NOT USED
Auxiliary Coulomb fitting basis             ... AVAILABLE
   # of basis functions in Aux-J            ...    387
   # of shells in Aux-J                     ...    125
   Maximum angular momentum in Aux-J        ...      4
Auxiliary J/K fitting basis                 ... NOT available
Auxiliary Correlation fitting basis         ... NOT available
Auxiliary 'external' fitting basis          ... NOT available
Integral threshold                          ...     2.500000e-11
Primitive cut-off                           ...     2.500000e-12
Primitive pair pre-selection threshold      ...     2.500000e-12

Calculating pre-screening integrals         ... done (  0.1 sec) Dimension = 93
Organizing shell pair data                  ... done (  0.1 sec)
Shell pair information
Total number of shell pairs                 ...      4371
Shell pairs after pre-screening             ...      3730
Total number of primitive shell pairs       ...     13696
Primitive shell pairs kept                  ...      8918
          la=0 lb=0:    932 shell pairs
          la=1 lb=0:   1030 shell pairs
          la=1 lb=1:    297 shell pairs
          la=2 lb=0:    546 shell pairs
          la=2 lb=1:    306 shell pairs
          la=2 lb=2:     87 shell pairs
          la=3 lb=0:    275 shell pairs
          la=3 lb=1:    154 shell pairs
          la=3 lb=2:     80 shell pairs
          la=3 lb=3:     23 shell pairs

Calculating one electron integrals          ... done (  0.0 sec)
Calculating RI/J V-Matrix + Cholesky decomp.... done (  0.1 sec)
Calculating Nuclear repulsion               ... done (  0.0 sec) ENN=    236.203393197163 Eh

SHARK setup successfully completed in   0.5 seconds

Maximum memory used throughout the entire GTOINT-calculation: 13.9 MB


           ************************************************************
           *        Program running with 40 parallel MPI-processes    *
           *              working on a common directory               *
           ************************************************************
-------------------------------------------------------------------------------
                                 ORCA SCF
-------------------------------------------------------------------------------

------------
SCF SETTINGS
------------
Hamiltonian:
 Density Functional     Method          .... DFT(GTOs)
 Exchange Functional    Exchange        .... WB97X-V
 Correlation Functional Correlation     .... WB97X-V
 Gradients option       PostSCFGGA      .... off
 Hybrid DFT is turned on
   Fraction HF Exchange ScalHFX         ....  0.167000
   Scaling of DF-GGA-X  ScalDFX         ....  0.000000
   Scaling of DF-GGA-C  ScalDFC         ....  1.000000
   Scaling of DF-LDA-C  ScalLDAC        ....  1.000000
   Perturbative correction              ....  0.000000
   Density functional embedding theory  .... OFF
 Long-range corrected/Screened/Range-Separated Hybrid DFT is turned on
   Amount of maximum screened exact exchange              ....  0.833000
   Range separation parameter mu (erf(mu*r12)/r12)        ....  0.300000
   NL short-range parameter             ....  6.000000
   NL long-range parameter              ....  0.010000
 RI-approximation to the Coulomb term is turned on
   Number of AuxJ basis functions       .... 387
   RIJ-COSX (HFX calculated with COS-X)).... on


General Settings:
 Integral files         IntName         .... /scratch/c.c21095646/orca.56180374/orca
 Hartree-Fock type      HFTyp           .... RHF
 Total Charge           Charge          ....    0
 Multiplicity           Mult            ....    1
 Number of Electrons    NEL             ....   50
 Basis Dimension        Dim             ....  241
 Nuclear Repulsion      ENuc            ....    236.2033931972 Eh

Convergence Acceleration:
 DIIS                   CNVDIIS         .... on
   Start iteration      DIISMaxIt       ....    12
   Startup error        DIISStart       ....  0.200000
   # of expansion vecs  DIISMaxEq       ....     5
   Bias factor          DIISBfac        ....   1.050
   Max. coefficient     DIISMaxC        ....  10.000
 Trust-Rad. Augm. Hess. CNVTRAH         .... auto
   Auto Start mean grad. ratio tolernc. ....  1.125000
   Auto Start start iteration           ....     1
   Auto Start num. interpolation iter.  ....    10
   Max. Number of Micro iterations      ....    16
   Max. Number of Macro iterations      .... Maxiter - #DIIS iter
   Number of Davidson start vectors     ....     2
   Converg. threshold I  (grad. norm)   ....   1.000e-05
   Converg. threshold II (energy diff.) ....   1.000e-08
   Grad. Scal. Fac. for Micro threshold ....   0.100
   Minimum threshold for Micro iter.    ....   0.010
   NR start threshold (gradient norm)   ....   0.001
   Initial trust radius                 ....   0.400
   Minimum AH scaling param. (alpha)    ....   1.000
   Maximum AH scaling param. (alpha)    .... 1000.000
   Orbital update algorithm             .... Taylor
   White noise on init. David. guess    .... on
   Maximum white noise                  ....   0.010
   Quad. conv. algorithm                .... NR
 SOSCF                  CNVSOSCF        .... on
   Start iteration      SOSCFMaxIt      ....   150
   Startup grad/error   SOSCFStart      ....  0.003300
 Level Shifting         CNVShift        .... on
   Level shift para.    LevelShift      ....    0.2500
   Turn off err/grad.   ShiftErr        ....    0.0010
 Zerner damping         CNVZerner       .... off
 Static damping         CNVDamp         .... on
   Fraction old density DampFac         ....    0.7000
   Max. Damping (<1)    DampMax         ....    0.9800
   Min. Damping (>=0)   DampMin         ....    0.0000
   Turn off err/grad.   DampErr         ....    0.1000
 Fernandez-Rico         CNVRico         .... off

SCF Procedure:
 Maximum # iterations   MaxIter         ....   125
 SCF integral mode      SCFMode         .... Direct
   Integral package                     .... SHARK and LIBINT hybrid scheme
 Reset frequency        DirectResetFreq ....    20
 Integral Threshold     Thresh          ....  2.500e-11 Eh
 Primitive CutOff       TCut            ....  2.500e-12 Eh

Convergence Tolerance:
 Convergence Check Mode ConvCheckMode   .... Total+1el-Energy
 Convergence forced     ConvForced      .... 0
 Energy Change          TolE            ....  1.000e-08 Eh
 1-El. energy change                    ....  1.000e-05 Eh
 Orbital Gradient       TolG            ....  1.000e-05
 Orbital Rotation angle TolX            ....  1.000e-05
 DIIS Error             TolErr          ....  5.000e-07


Diagonalization of the overlap matrix:
Smallest eigenvalue                        ... 3.781e-05
Time for diagonalization                   ...    0.016 sec
Threshold for overlap eigenvalues          ... 1.000e-08
Number of eigenvalues below threshold      ... 0
Time for construction of square roots      ...    0.028 sec
Total time needed                          ...    0.054 sec

---------------------
INITIAL GUESS: MOREAD
---------------------
Guess MOs are being read from file: /scratch/c.c21095646/orca.56180374/orca.gbw
Input Geometry matches current geometry (good)
Input basis set matches current basis set (good)
MOs were renormalized
MOs were reorthogonalized (Cholesky)
                      ------------------
                      INITIAL GUESS DONE (   0.0 sec)
                      ------------------
-------------------
DFT GRID GENERATION
-------------------

General Integration Accuracy     IntAcc      ... 4.388
Radial Grid Type                 RadialGrid  ... OptM3 with GC (2021)
Angular Grid (max. ang.)         AngularGrid ... 4 (Lebedev-302)
Angular grid pruning method      GridPruning ... 4 (adaptive)
Weight generation scheme         WeightScheme... Becke
Basis function cutoff            BFCut       ... 1.0000e-11
Integration weight cutoff        WCut        ... 1.0000e-14
Angular grids for H and He will be reduced by one unit
Partially contracted basis set               ... off
Rotationally invariant grid construction     ... off

Total number of grid points                  ...    55409
Total number of batches                      ...      872
Average number of points per batch           ...       63
Average number of grid points per atom       ...     5037

------------------
NL GRID GENERATION
------------------

General Integration Accuracy     IntAcc      ... 4.004
Radial Grid Type                 RadialGrid  ... OptM3 with GC (2021)
Angular Grid (max. ang.)         AngularGrid ... 2 (Lebedev-110)
Angular grid pruning method      GridPruning ... 4 (adaptive)
Weight generation scheme         WeightScheme... Becke
Basis function cutoff            BFCut       ... 1.0000e-10
Integration weight cutoff        WCut        ... 1.0000e-14
Angular grids for H and He will be reduced by one unit
Partially contracted basis set               ... off
Rotationally invariant grid construction     ... off

Total number of grid points                  ...    18244
Total number of batches                      ...      290
Average number of points per batch           ...       62
Average number of grid points per atom       ...     1659
Time for grid setup =    0.454 sec

--------------------
COSX GRID GENERATION
--------------------

GRIDX 1
-------
General Integration Accuracy     IntAcc      ... 3.816
Radial Grid Type                 RadialGrid  ... OptM3 with GC (2021)
Angular Grid (max. ang.)         AngularGrid ... 1 (Lebedev-50)
Angular grid pruning method      GridPruning ... 4 (adaptive)
Weight generation scheme         WeightScheme... Becke
Basis function cutoff            BFCut       ... 1.0000e-11
Integration weight cutoff        WCut        ... 1.0000e-14
Angular grids for H and He will be reduced by one unit
Partially contracted basis set               ... on
Rotationally invariant grid construction     ... off

Total number of grid points                  ...     7052
Total number of batches                      ...      115
Average number of points per batch           ...       61
Average number of grid points per atom       ...      641
UseSFitting                                  ... on

GRIDX 2
-------
General Integration Accuracy     IntAcc      ... 4.020
Radial Grid Type                 RadialGrid  ... OptM3 with GC (2021)
Angular Grid (max. ang.)         AngularGrid ... 2 (Lebedev-110)
Angular grid pruning method      GridPruning ... 4 (adaptive)
Weight generation scheme         WeightScheme... Becke
Basis function cutoff            BFCut       ... 1.0000e-11
Integration weight cutoff        WCut        ... 1.0000e-14
Angular grids for H and He will be reduced by one unit
Partially contracted basis set               ... on
Rotationally invariant grid construction     ... off

Total number of grid points                  ...    15941
Total number of batches                      ...      256
Average number of points per batch           ...       62
Average number of grid points per atom       ...     1449
UseSFitting                                  ... on

GRIDX 3
-------
General Integration Accuracy     IntAcc      ... 4.338
Radial Grid Type                 RadialGrid  ... OptM3 with GC (2021)
Angular Grid (max. ang.)         AngularGrid ... 3 (Lebedev-194)
Angular grid pruning method      GridPruning ... 4 (adaptive)
Weight generation scheme         WeightScheme... Becke
Basis function cutoff            BFCut       ... 1.0000e-11
Integration weight cutoff        WCut        ... 1.0000e-14
Angular grids for H and He will be reduced by one unit
Partially contracted basis set               ... on
Rotationally invariant grid construction     ... off

Total number of grid points                  ...    35231
Total number of batches                      ...      556
Average number of points per batch           ...       63
Average number of grid points per atom       ...     3203
UseSFitting                                  ... on

Time for X-Grid setup             =    0.551 sec

--------------
SCF ITERATIONS
--------------
ITER       Energy         Delta-E        Max-DP      RMS-DP      [F,P]     Damp
               ***  Starting incremental Fock matrix formation  ***
                      *** Initiating the SOSCF procedure ***
                      *** Re-Reading the Fockian *** 
                      *** Removing any level shift *** 
ITER      Energy       Delta-E        Grad      Rot      Max-DP    RMS-DP
  0   -343.00510950 -343.0051094954  0.000002  0.000002  0.000013  0.000000
               *** Restarting incremental Fock matrix formation ***
                  ***Gradient check signals convergence***
              ***Rediagonalizing the Fockian in SOSCF/NRSCF***

               *****************************************************
               *                     SUCCESS                       *
               *           SCF CONVERGED AFTER   1 CYCLES          *
               *****************************************************

Old exchange energy                            =    -13.818764046 Eh
New exchange energy                            =    -13.818760640 Eh
Exchange energy change after final integration =      0.000003406 Eh
Total energy after final integration           =   -343.005106089 Eh
Final COS-X integration done in                =     0.864 sec

----------------
TOTAL SCF ENERGY
----------------

Total Energy       :         -343.00510609 Eh           -9333.64345 eV

Components:
Nuclear Repulsion  :          236.20339320 Eh            6427.42109 eV
Electronic Energy  :         -579.20849929 Eh          -15761.06454 eV
One Electron Energy:         -932.75662620 Eh          -25381.59817 eV
Two Electron Energy:          353.54812692 Eh            9620.53363 eV
Max COSX asymmetry :            0.00000425 Eh               0.00012 eV

Virial components:
Potential Energy   :         -684.84454608 Eh          -18635.56751 eV
Kinetic Energy     :          341.83943999 Eh            9301.92406 eV
Virial Ratio       :            2.00340998


DFT components:
N(Alpha)           :       25.000012365168 electrons
N(Beta)            :       25.000012365168 electrons
N(Total)           :       50.000024730335 electrons
E(X)               :      -29.752089817405 Eh       
E(C)               :       -2.082802691947 Eh       
NL Energy, E(C,NL) :        0.198138037397 Eh       
E(XC)              :      -31.636754471955 Eh       
DFET-embed. en.    :        0.000000000000 Eh       

---------------
SCF CONVERGENCE
---------------

  Last Energy change         ...   -3.1775e-11  Tolerance :   1.0000e-08
  Last MAX-Density change    ...    1.2837e-15  Tolerance :   1.0000e-07
  Last RMS-Density change    ...    2.1405e-17  Tolerance :   5.0000e-09
  Last Orbital Gradient      ...    1.0642e-06  Tolerance :   1.0000e-05
  Last Orbital Rotation      ...    3.1041e-06  Tolerance :   1.0000e-05

             **** THE GBW FILE WAS UPDATED (/scratch/c.c21095646/orca.56180374/orca.gbw) ****
             **** DENSITY /scratch/c.c21095646/orca.56180374/orca.scfp WAS UPDATED ****
             **** ENERGY FILE WAS UPDATED (/scratch/c.c21095646/orca.56180374/orca.en.tmp) ****
             **** THE GBW FILE WAS UPDATED (/scratch/c.c21095646/orca.56180374/orca.gbw) ****
             **** DENSITY /scratch/c.c21095646/orca.56180374/orca.scfp WAS UPDATED ****
----------------
ORBITAL ENERGIES
----------------

  NO   OCC          E(Eh)            E(eV) 
   0   2.0000     -19.339834      -526.2636 
   1   2.0000     -19.308420      -525.4088 
   2   2.0000     -10.377276      -282.3800 
   3   2.0000     -10.332719      -281.1676 
   4   2.0000     -10.325806      -280.9795 
   5   2.0000     -10.304796      -280.4077 
   6   2.0000     -10.278696      -279.6975 
   7   2.0000      -1.276911       -34.7465 
   8   2.0000      -1.054258       -28.6878 
   9   2.0000      -0.977045       -26.5867 
  10   2.0000      -0.928392       -25.2628 
  11   2.0000      -0.801422       -21.8078 
  12   2.0000      -0.752558       -20.4781 
  13   2.0000      -0.705809       -19.2060 
  14   2.0000      -0.651126       -17.7180 
  15   2.0000      -0.604553       -16.4507 
  16   2.0000      -0.562725       -15.3125 
  17   2.0000      -0.547939       -14.9102 
  18   2.0000      -0.515641       -14.0313 
  19   2.0000      -0.506528       -13.7833 
  20   2.0000      -0.460121       -12.5205 
  21   2.0000      -0.460043       -12.5184 
  22   2.0000      -0.423963       -11.5366 
  23   2.0000      -0.375843       -10.2272 
  24   2.0000      -0.318394        -8.6639 
  25   0.0000      -0.150233        -4.0880 
  26   0.0000      -0.031895        -0.8679 
  27   0.0000       0.094803         2.5797 
  28   0.0000       0.123482         3.3601 
  29   0.0000       0.136709         3.7200 
  30   0.0000       0.151734         4.1289 
  31   0.0000       0.156626         4.2620 
  32   0.0000       0.180968         4.9244 
  33   0.0000       0.193848         5.2749 
  34   0.0000       0.216247         5.8844 
  35   0.0000       0.244847         6.6626 
  36   0.0000       0.256882         6.9901 
  37   0.0000       0.260733         7.0949 
  38   0.0000       0.292826         7.9682 
  39   0.0000       0.301369         8.2007 
  40   0.0000       0.316575         8.6145 
  41   0.0000       0.323158         8.7936 
  42   0.0000       0.340686         9.2705 
  43   0.0000       0.356189         9.6924 
  44   0.0000       0.376535        10.2460 
  45   0.0000       0.398938        10.8557 
  46   0.0000       0.401166        10.9163 
  47   0.0000       0.422410        11.4944 
  48   0.0000       0.438880        11.9425 
  49   0.0000       0.439215        11.9517 
  50   0.0000       0.456280        12.4160 
  51   0.0000       0.469578        12.7779 
  52   0.0000       0.482099        13.1186 
  53   0.0000       0.485570        13.2130 
  54   0.0000       0.494041        13.4435 
  55   0.0000       0.501319        13.6416 
  56   0.0000       0.534689        14.5496 
  57   0.0000       0.540675        14.7125 
  58   0.0000       0.555647        15.1199 
  59   0.0000       0.587578        15.9888 
  60   0.0000       0.596875        16.2418 
  61   0.0000       0.603544        16.4233 
  62   0.0000       0.626529        17.0487 
  63   0.0000       0.630576        17.1589 
  64   0.0000       0.670001        18.2317 
  65   0.0000       0.692488        18.8435 
  66   0.0000       0.694750        18.9051 
  67   0.0000       0.716101        19.4861 
  68   0.0000       0.739224        20.1153 
  69   0.0000       0.762826        20.7576 
  70   0.0000       0.788097        21.4452 
  71   0.0000       0.804894        21.9023 
  72   0.0000       0.886851        24.1324 
  73   0.0000       0.911984        24.8163 
  74   0.0000       0.920574        25.0501 
  75   0.0000       0.932060        25.3626 
  76   0.0000       0.967405        26.3244 
  77   0.0000       0.972036        26.4504 
  78   0.0000       0.985634        26.8205 
  79   0.0000       1.038503        28.2591 
  80   0.0000       1.049224        28.5508 
  81   0.0000       1.072781        29.1919 
  82   0.0000       1.140274        31.0284 
  83   0.0000       1.149803        31.2877 
  84   0.0000       1.188841        32.3500 
  85   0.0000       1.201536        32.6954 
  86   0.0000       1.233797        33.5733 
  87   0.0000       1.254438        34.1350 
  88   0.0000       1.287505        35.0348 
  89   0.0000       1.295069        35.2406 
  90   0.0000       1.322015        35.9738 
  91   0.0000       1.349965        36.7344 
  92   0.0000       1.363484        37.1023 
  93   0.0000       1.389350        37.8061 
  94   0.0000       1.413439        38.4616 
  95   0.0000       1.497097        40.7381 
  96   0.0000       1.508373        41.0449 
  97   0.0000       1.541744        41.9530 
  98   0.0000       1.545946        42.0673 
  99   0.0000       1.547134        42.0997 
 100   0.0000       1.576024        42.8858 
 101   0.0000       1.579240        42.9733 
 102   0.0000       1.583445        43.0877 
 103   0.0000       1.590946        43.2918 
 104   0.0000       1.597062        43.4583 
 105   0.0000       1.599971        43.5374 
 106   0.0000       1.612840        43.8876 
 107   0.0000       1.700083        46.2616 
 108   0.0000       1.732874        47.1539 
 109   0.0000       1.733823        47.1797 
 110   0.0000       1.819844        49.5205 
 111   0.0000       1.820453        49.5370 
 112   0.0000       1.873280        50.9745 
 113   0.0000       1.903677        51.8017 
 114   0.0000       1.908534        51.9339 
 115   0.0000       1.962490        53.4021 
 116   0.0000       1.987033        54.0699 
 117   0.0000       2.004351        54.5412 
 118   0.0000       2.019884        54.9638 
 119   0.0000       2.053521        55.8791 
 120   0.0000       2.090035        56.8727 
 121   0.0000       2.112864        57.4940 
 122   0.0000       2.136446        58.1356 
 123   0.0000       2.174820        59.1799 
 124   0.0000       2.196683        59.7748 
 125   0.0000       2.205440        60.0131 
 126   0.0000       2.308007        62.8041 
 127   0.0000       2.329481        63.3884 
 128   0.0000       2.375476        64.6400 
 129   0.0000       2.414570        65.7038 
 130   0.0000       2.482457        67.5511 
 131   0.0000       2.521450        68.6121 
 132   0.0000       2.525841        68.7316 
 133   0.0000       2.546462        69.2928 
 134   0.0000       2.588532        70.4375 
 135   0.0000       2.610054        71.0232 
 136   0.0000       2.610834        71.0444 
 137   0.0000       2.613334        71.1124 
 138   0.0000       2.625127        71.4334 
 139   0.0000       2.638255        71.7906 
 140   0.0000       2.657078        72.3028 
 141   0.0000       2.682944        73.0066 
 142   0.0000       2.731696        74.3332 
 143   0.0000       2.739974        74.5585 
 144   0.0000       2.763537        75.1997 
 145   0.0000       2.766770        75.2876 
 146   0.0000       2.775957        75.5376 
 147   0.0000       2.807293        76.3903 
 148   0.0000       2.836075        77.1735 
 149   0.0000       2.840485        77.2935 
 150   0.0000       2.913502        79.2804 
 151   0.0000       2.936558        79.9078 
 152   0.0000       2.956120        80.4401 
 153   0.0000       2.964870        80.6782 
 154   0.0000       3.013191        81.9931 
 155   0.0000       3.027228        82.3751 
 156   0.0000       3.059996        83.2667 
 157   0.0000       3.095982        84.2460 
 158   0.0000       3.114439        84.7482 
 159   0.0000       3.142354        85.5078 
 160   0.0000       3.148502        85.6751 
 161   0.0000       3.171093        86.2898 
 162   0.0000       3.188697        86.7689 
 163   0.0000       3.206720        87.2593 
 164   0.0000       3.218363        87.5761 
 165   0.0000       3.237689        88.1020 
 166   0.0000       3.262220        88.7695 
 167   0.0000       3.296725        89.7085 
 168   0.0000       3.302560        89.8672 
 169   0.0000       3.323453        90.4357 
 170   0.0000       3.342566        90.9558 
 171   0.0000       3.353198        91.2451 
 172   0.0000       3.424101        93.1745 
 173   0.0000       3.438435        93.5646 
 174   0.0000       3.445999        93.7704 
 175   0.0000       3.478221        94.6472 
 176   0.0000       3.503168        95.3260 
 177   0.0000       3.535038        96.1933 
 178   0.0000       3.561765        96.9206 
 179   0.0000       3.573310        97.2347 
 180   0.0000       3.622691        98.5784 
 181   0.0000       3.665471        99.7425 
 182   0.0000       3.701955       100.7353 
 183   0.0000       3.726823       101.4120 
 184   0.0000       3.743293       101.8602 
 185   0.0000       3.766283       102.4858 
 186   0.0000       3.881461       105.6199 
 187   0.0000       3.976051       108.1939 
 188   0.0000       4.023897       109.4958 
 189   0.0000       4.029556       109.6498 
 190   0.0000       4.099200       111.5449 
 191   0.0000       4.212449       114.6266 
 192   0.0000       4.273982       116.3010 
 193   0.0000       4.299443       116.9938 
 194   0.0000       4.304201       117.1233 
 195   0.0000       4.325319       117.6979 
 196   0.0000       4.452477       121.1581 
 197   0.0000       4.461366       121.3999 
 198   0.0000       4.537549       123.4730 
 199   0.0000       4.568043       124.3028 
 200   0.0000       4.616960       125.6339 
 201   0.0000       4.746475       129.1581 
 202   0.0000       4.776539       129.9762 
 203   0.0000       4.811064       130.9157 
 204   0.0000       4.852427       132.0412 
 205   0.0000       4.941516       134.4655 
 206   0.0000       4.992047       135.8405 
 207   0.0000       5.044757       137.2748 
 208   0.0000       5.157808       140.3511 
 209   0.0000       5.158443       140.3684 
 210   0.0000       5.159022       140.3841 
 211   0.0000       5.178314       140.9091 
 212   0.0000       5.178363       140.9104 
 213   0.0000       5.192137       141.2852 
 214   0.0000       5.227275       142.2414 
 215   0.0000       5.227321       142.2426 
 216   0.0000       5.479983       149.1179 
 217   0.0000       5.506842       149.8488 
 218   0.0000       5.732337       155.9848 
 219   0.0000       5.785976       157.4444 
 220   0.0000       5.933268       161.4524 
 221   0.0000       5.995206       163.1379 
 222   0.0000       6.211798       169.0316 
 223   0.0000       6.214447       169.1037 
 224   0.0000       6.230441       169.5389 
 225   0.0000       6.261112       170.3735 
 226   0.0000       6.261871       170.3942 
 227   0.0000       6.369318       173.3179 
 228   0.0000       6.594045       179.4331 
 229   0.0000       6.740946       183.4305 
 230   0.0000       6.864039       186.7800 
 231   0.0000       6.880841       187.2372 
 232   0.0000       7.326803       199.3724 
 233   0.0000       7.384558       200.9440 
 234   0.0000      22.161630       603.0486 
 235   0.0000      22.314133       607.1984 
 236   0.0000      22.680295       617.1622 
 237   0.0000      22.811019       620.7194 
 238   0.0000      23.207667       631.5127 
 239   0.0000      42.748146      1163.2362 
 240   0.0000      44.083663      1199.5775 
-------
TIMINGS
-------

Total SCF time: 0 days 0 hours 0 min 5 sec 

Total time                  ....       5.148 sec
Sum of individual times     ....       4.272 sec  ( 83.0%)

Fock matrix formation       ....       3.123 sec  ( 60.7%)
  Split-RI-J                ....       0.639 sec  ( 20.5% of F)
  Chain of spheres X        ....       1.730 sec  ( 55.4% of F)
  XC integration            ....       0.568 sec  ( 18.2% of F)
    Basis function eval.    ....       0.030 sec  (  5.2% of XC)
    Density eval.           ....       0.020 sec  (  3.4% of XC)
    XC-Functional eval.     ....       0.163 sec  ( 28.6% of XC)
    XC-Potential eval.      ....       0.024 sec  (  4.2% of XC)
Diagonalization             ....       0.053 sec  (  1.0%)
Density matrix formation    ....       0.012 sec  (  0.2%)
Population analysis         ....       0.000 sec  (  0.0%)
Initial guess               ....       0.024 sec  (  0.5%)
Orbital Transformation      ....       0.000 sec  (  0.0%)
Orbital Orthonormalization  ....       0.013 sec  (  0.2%)
DIIS solution               ....       0.016 sec  (  0.3%)
SOSCF solution              ....       0.040 sec  (  0.8%)
Grid generation             ....       1.004 sec  ( 19.5%)

Maximum memory used throughout the entire SCF-calculation: 69.1 MB

-------------------------   --------------------
FINAL SINGLE POINT ENERGY      -343.005106089486
-------------------------   --------------------



           ************************************************************
           *        Program running with 40 parallel MPI-processes    *
           *              working on a common directory               *
           ************************************************************
------------------------------------------------------------------------------
                         ORCA SCF GRADIENT CALCULATION
------------------------------------------------------------------------------

 ... reading COSX grid (gridx3)
Gradient of the Kohn-Sham DFT energy:
Kohn-Sham wavefunction type      ... RKS
Hartree-Fock exchange scaling    ...    0.167
Number of operators              ...    1
Number of atoms                  ...   11
Basis set dimensions             ...  241
Integral neglect threshold       ... 2.5e-11
Integral primitive cutoff        ... 2.5e-12
SHARK Integral package           ... ON

Nuc. rep. gradient       (SHARK) ... done (  0.0 sec)
HCore & Overlap gradient (SHARK) ... done (  0.0 sec)
RI-J gradient            (SHARK) ... done (  0.3 sec)
COSX-gradient                    ... done (  1.0 sec)
Exchange-correlation gradient    ... done
NL correlation gradient          ... done

------------------
CARTESIAN GRADIENT
------------------

   1   C   :   -0.000041012   -0.000263063    0.000012771
   2   C   :    0.000020476    0.000060039   -0.000086997
   3   C   :   -0.000023168   -0.000241802   -0.000444102
   4   C   :   -0.000026668   -0.000356742   -0.000186256
   5   C   :    0.000114678   -0.000465903   -0.000586429
   6   O   :   -0.000115996    0.001918926    0.001374966
   7   O   :    0.000064036    0.000021499   -0.000557653
   8   H   :    0.000017983   -0.000165638    0.000208706
   9   H   :    0.000003844   -0.000411256    0.000049029
  10   H   :   -0.000055762   -0.000190182    0.000196797
  11   H   :    0.000089831    0.000339612   -0.000460173

Difference to translation invariance:
           :    0.0000482403    0.0002454890   -0.0004793435

Difference to rotation invariance:
           :   -0.0033373586   -0.0000706542   -0.0001760013

Norm of the cartesian gradient     ...    0.0027628785
RMS gradient                       ...    0.0004809554
MAX gradient                       ...    0.0019189257

-------
TIMINGS
-------

Total SCF gradient time            ...        2.281 sec

One electron gradient       ....       0.018 sec  (  0.8%)
RI-J Coulomb gradient       ....       0.304 sec  ( 13.3%)
COSX gradient               ....       1.014 sec  ( 44.5%)
XC gradient                 ....       0.172 sec  (  7.5%)
NL correlation gradient     ....       0.232 sec  ( 10.1%)

Maximum memory used throughout the entire SCFGRAD-calculation: 42.9 MB
------------------------------------------------------------------------------
                         ORCA GEOMETRY RELAXATION STEP
------------------------------------------------------------------------------

Reading the OPT-File                    .... done
Getting information on internals        .... done
Copying old internal coords+grads       .... done
Making the new internal coordinates     .... (new redundants).... done
Validating the new internal coordinates .... (new redundants).... done
Calculating the B-matrix                .... done
Calculating the G,G- and P matrices     .... done
Transforming gradient to internals      .... done
Projecting the internal gradient        .... done
Number of atoms                         ....  11
Number of internal coordinates          ....  52
Current Energy                          ....  -343.005106089 Eh
Current gradient norm                   ....     0.002762878 Eh/bohr
Maximum allowed component of the step   ....  0.300
Current trust radius                    ....  0.100
Evaluating the initial hessian          ....  (read) 
(Reading Exact Hessian)...  
InHessName: /scratch/c.c21095646/orca.56180374/orca.appr.hess	The file </scratch/c.c21095646/orca.56180374/orca.appr.hess> is opened as a .hess file
done
done
Diagonalizing the Hessian               .... done
Dimension of the hessian                .... 52
Lowest eigenvalues of the non projected Hessian:
 -0.002673078 -0.000000000 -0.000000000 -0.000000000 -0.000000000
done
Projecting the Hessian                  .... done
Diagonalizing the Hessian               .... done
Dimension of the hessian                ....  52
Lowest eigenvalues of the Hessian:
 -0.002673078  0.017346223  0.024135188  0.025612135  0.026547792
Hessian has   1 negative eigenvalues
Taking P-RFO step
Searching for lambda that maximizes along the lowest mode
TS mode is mode number   0 with eigenvalue  -0.00267308 and components:
   1.   -0.00052145
   2.    0.00181152
   3.   -0.00323066
   4.    0.00481030
   5.    0.77250631
   6.    0.00213641
   7.   -0.00092437
   8.    0.00028821
   9.   -0.00019203
  10.   -0.00000589
  11.    0.61777095
  12.    0.00902895
  13.   -0.00162529
  14.    0.00352120
  15.   -0.00189573
  16.   -0.00041614
  17.   -0.00023077
  18.    0.00064695
  19.    0.01918741
  20.   -0.01819868
  21.   -0.00098385
  22.   -0.00220577
  23.    0.00177554
  24.    0.00043040
  25.   -0.06876239
  26.   -0.00652243
  27.   -0.06157463
  28.   -0.03549741
  29.    0.00153224
  30.    0.09707204
  31.    0.00108340
  32.    0.00088947
  33.    0.00080980
  34.    0.00116307
  35.   -0.00044356
  36.   -0.00031308
  37.   -0.00017071
  38.    0.00003489
  39.    0.00501092
  40.   -0.00052591
  41.   -0.00023072
  42.    0.00480532
  43.    0.01774874
  44.   -0.00227303
  45.   -0.00774255
  46.    0.02321826
  47.   -0.01804420
  48.   -0.00351714
  49.    0.00050353
  50.   -0.00112028
  51.   -0.00088474
  52.    0.01345794

Lambda that maximizes along the TS mode:       0.00100018
Searching for lambda that minimizes along all other modes
In cycle   1: lambdaN =  -0.00004324   step =   0.00004324
In cycle   2: lambdaN =  -0.00004324   step =   0.00000000
Lambda that minimizes along all other modes:  -0.00004324
Calculated stepsize too large (   0.4286 >    0.1000). Scaled with    0.2333.
The final length of the internal step   ....       0.1000
Converting the step to cartesian space:
 Initial RMS(Int)=    0.0138675049
Transforming coordinates:
 Iter   0:  RMS(Cart)=    0.0120816596 RMS(Int)=    0.0138376991
 Iter   1:  RMS(Cart)=    0.0000260240 RMS(Int)=    0.0000168890
 Iter   2:  RMS(Cart)=    0.0000003060 RMS(Int)=    0.0000003027
 Iter   3:  RMS(Cart)=    0.0000000059 RMS(Int)=    0.0000000068
done
Storing new coordinates                 .... done

                                .--------------------.
          ----------------------|Geometry convergence|-------------------------
          Item                value                   Tolerance       Converged
          ---------------------------------------------------------------------
          RMS gradient        0.0004654882            0.0001000000      NO
          MAX gradient        0.0018663728            0.0003000000      NO
          RMS step            0.0138675049            0.0020000000      NO
          MAX step            0.0699982115            0.0040000000      NO
          ........................................................
          Max(Bonds)      0.0370      Max(Angles)    0.52
          Max(Dihed)        0.16      Max(Improp)    0.00
          ---------------------------------------------------------------------

The optimization has not yet converged - more geometry cycles are needed


    ---------------------------------------------------------------------------
                         Redundant Internal Coordinates
                            (Angstroem and degrees)

        Definition                    Value    dE/dq     Step     New-Value  comp.(TS mode)
    ----------------------------------------------------------------------------
     1. B(C   1,C   0)                1.3808 -0.000124 -0.0000    1.3808   
     2. B(C   3,C   1)                1.3947  0.000023  0.0001    1.3948   
     3. B(C   3,C   2)                1.3995  0.000888 -0.0004    1.3991   
     4. B(C   4,C   2)                1.3786  0.001741 -0.0001    1.3786   
     5. B(O   5,C   4)                3.9304  0.001866  0.0370    3.9675          0.77
     6. B(O   6,C   2)                1.4148  0.000561 -0.0000    1.4148   
     7. B(O   6,C   0)                1.3097  0.000505 -0.0001    1.3096   
     8. B(H   7,C   0)                1.0824 -0.000174  0.0001    1.0825   
     9. B(H   8,C   1)                1.0800  0.000423 -0.0002    1.0799   
    10. B(H   9,C   3)                1.0818  0.000256 -0.0001    1.0817   
    11. B(H  10,O   5)                3.4910  0.000500  0.0370    3.5280          0.62
    12. B(H  10,C   4)                1.1019 -0.000124  0.0005    1.1024   
    13. A(C   1,C   0,O   6)          112.78  0.000254   -0.02    112.76   
    14. A(C   1,C   0,H   7)          130.52 -0.000311    0.03    130.56   
    15. A(O   6,C   0,H   7)          116.70  0.000056   -0.02    116.68   
    16. A(C   3,C   1,H   8)          128.83  0.000042   -0.01    128.83   
    17. A(C   0,C   1,H   8)          126.44  0.000028   -0.00    126.43   
    18. A(C   0,C   1,C   3)          104.73 -0.000070    0.01    104.74   
    19. A(C   3,C   2,C   4)          135.31 -0.000261    0.14    135.45   
    20. A(C   4,C   2,O   6)          118.73  0.000690   -0.15    118.59   
    21. A(C   3,C   2,O   6)          105.96 -0.000429    0.01    105.97   
    22. A(C   2,C   3,H   9)          123.68  0.000075   -0.02    123.66   
    23. A(C   1,C   3,H   9)          127.40 -0.000357    0.03    127.42   
    24. A(C   1,C   3,C   2)          108.92  0.000282   -0.01    108.91   
    25. A(C   2,C   4,O   5)          164.73 -0.000731   -0.35    164.39   
    26. A(C   2,C   4,H  10)          106.33 -0.000045   -0.06    106.27   
    27. A(O   5,C   4,H  10)           58.89 -0.000663   -0.29     58.60   
    28. A(C   4,O   5,H  10)           15.68 -0.000150   -0.23     15.45   
    29. A(C   0,O   6,C   2)          107.61 -0.000037    0.01    107.62   
    30. A(C   4,H  10,O   5)          105.43  0.000813    0.52    105.96   
    31. D(H   8,C   1,C   0,H   7)     -0.04 -0.000007    0.01     -0.03   
    32. D(C   3,C   1,C   0,O   6)     -0.02  0.000016   -0.00     -0.02   
    33. D(H   8,C   1,C   0,O   6)   -180.00  0.000011    0.00   -179.99   
    34. D(C   3,C   1,C   0,H   7)    179.93 -0.000002    0.01    179.94   
    35. D(C   2,C   3,C   1,H   8)    179.98 -0.000013    0.00    179.98   
    36. D(H   9,C   3,C   1,C   0)    179.95 -0.000017    0.01    179.96   
    37. D(H   9,C   3,C   2,O   6)   -179.94  0.000014   -0.01   -179.94   
    38. D(C   1,C   3,C   2,O   6)      0.02  0.000015   -0.01      0.01   
    39. D(C   1,C   3,C   2,C   4)    179.94  0.000026    0.03    179.97   
    40. D(C   2,C   3,C   1,C   0)      0.00 -0.000018    0.00      0.01   
    41. D(H   9,C   3,C   1,H   8)     -0.07 -0.000012    0.00     -0.07   
    42. D(H   9,C   3,C   2,C   4)     -0.01  0.000025    0.02      0.01   
    43. D(O   5,C   4,C   2,C   3)    -13.44  0.000073    0.11    -13.33   
    44. D(H  10,C   4,C   2,O   6)   -179.83  0.000038   -0.05   -179.87   
    45. D(H  10,C   4,C   2,C   3)      0.25  0.000027   -0.08      0.17   
    46. D(O   5,C   4,C   2,O   6)    166.48  0.000084    0.14    166.63   
    47. D(H  10,O   5,C   4,C   2)     15.38  0.000061   -0.16     15.22   
    48. D(C   0,O   6,C   2,C   4)   -179.97 -0.000013   -0.02   -179.99   
    49. D(C   0,O   6,C   2,C   3)     -0.03 -0.000005    0.01     -0.02   
[...]
UseSFitting                                  ... on

GRIDX 3
-------
General Integration Accuracy     IntAcc      ... 4.338
Radial Grid Type                 RadialGrid  ... OptM3 with GC (2021)
Angular Grid (max. ang.)         AngularGrid ... 3 (Lebedev-194)
Angular grid pruning method      GridPruning ... 4 (adaptive)
Weight generation scheme         WeightScheme... Becke
Basis function cutoff            BFCut       ... 1.0000e-11
Integration weight cutoff        WCut        ... 1.0000e-14
Angular grids for H and He will be reduced by one unit
Partially contracted basis set               ... on
Rotationally invariant grid construction     ... off

Total number of grid points                  ...    35275
Total number of batches                      ...      557
Average number of points per batch           ...       63
Average number of grid points per atom       ...     3207
UseSFitting                                  ... on

Time for X-Grid setup             =    0.514 sec

--------------
SCF ITERATIONS
--------------
ITER       Energy         Delta-E        Max-DP      RMS-DP      [F,P]     Damp
               ***  Starting incremental Fock matrix formation  ***
                      *** Initiating the SOSCF procedure ***
                      *** Re-Reading the Fockian *** 
                      *** Removing any level shift *** 
ITER      Energy       Delta-E        Grad      Rot      Max-DP    RMS-DP
  0   -342.99132407 -342.9913240672  0.001917  0.001917  0.005679  0.000106
               *** Restarting incremental Fock matrix formation ***
  1   -342.99168610  -0.0003620325  0.001292  0.002700  0.002252  0.000049
  2   -342.99176375  -0.0000776495  0.000629  0.002163  0.000965  0.000030
  3   -342.99177589  -0.0000121407  0.000233  0.000534  0.000490  0.000010
  4   -342.99177680  -0.0000009065  0.000184  0.000182  0.000227  0.000005
  5   -342.99177786  -0.0000010683  0.000063  0.000266  0.000070  0.000002
  6   -342.99177796  -0.0000000967  0.000044  0.000398  0.000101  0.000002
  7   -342.99177801  -0.0000000463  0.000014  0.000096  0.000023  0.000001
  8   -342.99177802  -0.0000000104  0.000010  0.000042  0.000020  0.000001
  9   -342.99177802  -0.0000000024  0.000004  0.000021  0.000014  0.000000
 10   -342.99177802  -0.0000000013  0.000004  0.000029  0.000014  0.000000
                 **** Energy Check signals convergence ****
              ***Rediagonalizing the Fockian in SOSCF/NRSCF***

               *****************************************************
               *                     SUCCESS                       *
               *           SCF CONVERGED AFTER  11 CYCLES          *
               *****************************************************

Old exchange energy                            =    -13.820784509 Eh
New exchange energy                            =    -13.820784070 Eh
Exchange energy change after final integration =      0.000000439 Eh
Total energy after final integration           =   -342.991777582 Eh
Final COS-X integration done in                =     0.845 sec
Total Energy       :         -342.99177758 Eh           -9333.28076 eV
  Last Energy change         ...    2.3840e-10  Tolerance :   1.0000e-08
  Last MAX-Density change    ...    1.1102e-15  Tolerance :   1.0000e-07
             **** THE GBW FILE WAS UPDATED (/scratch/c.c21095646/orca.56180374/orca.gbw) ****
             **** DENSITY /scratch/c.c21095646/orca.56180374/orca.scfp WAS UPDATED ****
             **** ENERGY FILE WAS UPDATED (/scratch/c.c21095646/orca.56180374/orca.en.tmp) ****
             **** THE GBW FILE WAS UPDATED (/scratch/c.c21095646/orca.56180374/orca.gbw) ****
             **** DENSITY /scratch/c.c21095646/orca.56180374/orca.scfp WAS UPDATED ****
Total SCF time: 0 days 0 hours 0 min 17 sec 

Maximum memory used throughout the entire SCF-calculation: 69.0 MB

-------------------------   --------------------
FINAL SINGLE POINT ENERGY      -342.991777582208
-------------------------   --------------------



           ************************************************************
           *        Program running with 40 parallel MPI-processes    *
           *              working on a common directory               *
           ************************************************************
------------------------------------------------------------------------------
                         ORCA SCF GRADIENT CALCULATION
------------------------------------------------------------------------------

 ... reading COSX grid (gridx3)
Gradient of the Kohn-Sham DFT energy:
Kohn-Sham wavefunction type      ... RKS
Hartree-Fock exchange scaling    ...    0.167
Number of operators              ...    1
Number of atoms                  ...   11
Basis set dimensions             ...  241
Integral neglect threshold       ... 2.5e-11
Integral primitive cutoff        ... 2.5e-12
SHARK Integral package           ... ON

Nuc. rep. gradient       (SHARK) ... done (  0.0 sec)
HCore & Overlap gradient (SHARK) ... done (  0.0 sec)
RI-J gradient            (SHARK) ... done (  0.3 sec)
COSX-gradient                    ... done (  0.9 sec)
Exchange-correlation gradient    ... done
NL correlation gradient          ... done

------------------
CARTESIAN GRADIENT
------------------

   1   C   :   -0.008389842    0.017397949    0.012221830
   2   C   :    0.012634398   -0.051367378   -0.060191957
   3   C   :   -0.002976138   -0.013069158   -0.002011233
   4   C   :   -0.008848995    0.053457140    0.041600492
   5   C   :   -0.001699283   -0.003419724   -0.001667925
   6   O   :    0.000005458    0.000292221    0.000347408
   7   O   :    0.005825384   -0.002538612    0.010195652
   8   H   :    0.002560621   -0.002273726   -0.004946950
   9   H   :   -0.004402381    0.004606957    0.012212894
  10   H   :    0.003589350   -0.000109309   -0.003548118
  11   H   :    0.001671598   -0.003048361   -0.004299286

Difference to translation invariance:
           :   -0.0000298313   -0.0000720016   -0.0000871933

Difference to rotation invariance:
           :    0.0009391230   -0.0004617954    0.0003790871

Norm of the cartesian gradient     ...    0.1106252689
RMS gradient                       ...    0.0192573875
MAX gradient                       ...    0.0601919571

-------
TIMINGS
-------

Total SCF gradient time            ...        2.133 sec

One electron gradient       ....       0.021 sec  (  1.0%)
RI-J Coulomb gradient       ....       0.282 sec  ( 13.2%)
COSX gradient               ....       0.946 sec  ( 44.4%)
XC gradient                 ....       0.167 sec  (  7.8%)
NL correlation gradient     ....       0.230 sec  ( 10.8%)

Maximum memory used throughout the entire SCFGRAD-calculation: 42.9 MB
------------------------------------------------------------------------------
                         ORCA GEOMETRY RELAXATION STEP
------------------------------------------------------------------------------

Reading the OPT-File                    .... done
Getting information on internals        .... done
Copying old internal coords+grads       .... done
Making the new internal coordinates     .... (new redundants).... done
Validating the new internal coordinates .... (new redundants).... done
Calculating the B-matrix                .... done
Calculating the G,G- and P matrices     .... done
Transforming gradient to internals      .... done
Projecting the internal gradient        .... done
Number of atoms                         ....  11
Number of internal coordinates          ....  52
Current Energy                          ....  -342.991777582 Eh
Current gradient norm                   ....     0.110625269 Eh/bohr
Maximum allowed component of the step   ....  0.300
Current trust radius                    ....  0.100
Updating the Hessian (Bofill)          .... Diagonalizing the Hessian               .... done
Dimension of the hessian                ....  52
Lowest eigenvalues of the Hessian:
  0.023281521  0.035599411  0.042574914  0.044210608  0.047921582
Hessian has   0 negative eigenvalues
Taking P-RFO step
Searching for lambda that maximizes along the lowest mode
TS mode is mode number   0 with eigenvalue   0.02328152 and components:
   1.   -0.00947274
   2.    0.06602622
   3.   -0.00848866
   4.    0.01623090
   5.   -0.11862273
   6.   -0.03814999
   7.    0.01485190
   8.   -0.00462918
   9.   -0.00297252
  10.   -0.00224520
  11.    0.37109121
  12.   -0.00893837
  13.    0.00060580
  14.    0.09679478
  15.   -0.09029257
  16.   -0.07260511
  17.    0.09837491
  18.   -0.01502778
  19.   -0.06709886
  20.    0.05460532
  21.    0.01183165
  22.    0.06635873
  23.   -0.05981134
  24.   -0.01232570
  25.    0.11000529
  26.   -0.04868110
  27.    0.23952390
  28.    0.01986814
  29.    0.00911594
  30.   -0.25939204
  31.    0.38486296
  32.    0.00024834
  33.    0.13788060
  34.    0.24723070
  35.   -0.12161461
  36.    0.15133221
  37.   -0.17761545
  38.   -0.04771089
  39.   -0.11776144
  40.    0.02837852
  41.    0.00133908
  42.   -0.24766601
  43.    0.23699550
  44.   -0.11145071
  45.   -0.03295355
  46.    0.15849834
  47.   -0.29689675
  48.    0.11461124
  49.    0.05047570
  50.   -0.25844551
  51.   -0.03247725
  52.   -0.10642948

Lambda that maximizes along the TS mode:       0.02515313
Searching for lambda that minimizes along all other modes
In cycle   1: lambdaN =  -0.01611557   step =   0.01611557
In cycle   2: lambdaN =  -0.01695450   step =   0.00083894
In cycle   3: lambdaN =  -0.01695581   step =   0.00000130
In cycle   4: lambdaN =  -0.01695581   step =   0.00000000
Lambda that minimizes along all other modes:  -0.01695581
Calculated stepsize too large (   1.5461 >    0.1000). Scaled with    0.0647.
The final length of the internal step   ....       0.1000
Converting the step to cartesian space:
 Initial RMS(Int)=    0.0138675049
Transforming coordinates:
 Iter   0:  RMS(Cart)=    0.0165956075 RMS(Int)=    0.0132037342
 Iter   1:  RMS(Cart)=    0.0002315473 RMS(Int)=    0.0002009013
 Iter   2:  RMS(Cart)=    0.0000046917 RMS(Int)=    0.0000031347
 Iter   3:  RMS(Cart)=    0.0000001212 RMS(Int)=    0.0000001001
 Iter   4:  RMS(Cart)=    0.0000000028 RMS(Int)=    0.0000000019
done
Storing new coordinates                 .... done
The predicted energy change is          ....     0.379348327
Previously predicted energy change      ....     0.429057840
Actually observed energy change         ....     0.001039560
Ratio of predicted to observed change   ....     0.002422891
New trust radius                        ....     0.100000000

                                .--------------------.
          ----------------------|Geometry convergence|-------------------------
          Item                value                   Tolerance       Converged
          ---------------------------------------------------------------------
          Energy change       0.0010395603            0.0000050000      NO
          RMS gradient        0.0088778536            0.0001000000      NO
          MAX gradient        0.0527199177            0.0003000000      NO
          RMS step            0.0138675049            0.0020000000      NO
          MAX step            0.0194037793            0.0040000000      NO
          ........................................................
          Max(Bonds)      0.0103      Max(Angles)    1.11
          Max(Dihed)        1.11      Max(Improp)    0.00
          ---------------------------------------------------------------------

The optimization has not yet converged - more geometry cycles are needed


    ---------------------------------------------------------------------------
                         Redundant Internal Coordinates
                            (Angstroem and degrees)

        Definition                    Value    dE/dq     Step     New-Value  comp.(TS mode)
    ----------------------------------------------------------------------------
     1. B(C   1,C   0)                1.3664 -0.000390 -0.0004    1.3660   
     2. B(C   3,C   1)                1.5087  0.052720  0.0020    1.5107   
     3. B(C   3,C   2)                1.3651 -0.016844  0.0006    1.3657   
     4. B(C   4,C   2)                1.3884 -0.007709  0.0018    1.3902   
     5. B(O   5,C   4)                4.7733 -0.001123 -0.0103    4.7630   
     6. B(O   6,C   2)                1.3855 -0.008351 -0.0037    1.3818   
     7. B(O   6,C   0)                1.3147 -0.003269  0.0017    1.3164   
     8. B(H   7,C   0)                1.0909  0.005546 -0.0012    1.0898   
     9. B(H   8,C   1)                1.0749 -0.002033 -0.0000    1.0748   
    10. B(H   9,C   3)                1.0760 -0.003298  0.0001    1.0761   
    11. B(H  10,O   5)                4.4175  0.001614  0.0103    4.4277          0.37
    12. B(H  10,C   4)                1.1000 -0.003486 -0.0009    1.0991   
    13. A(C   1,C   0,O   6)          114.27  0.002967   -0.10    114.17   
    14. A(C   1,C   0,H   7)          129.48 -0.002795    1.11    130.59   
    15. A(O   6,C   0,H   7)          116.12 -0.000259   -1.11    115.01   
    16. A(C   3,C   1,H   8)          120.86 -0.006654   -0.62    120.25   
    17. A(C   0,C   1,H   8)          136.97  0.019239    0.82    137.79   
    18. A(C   0,C   1,C   3)          101.72 -0.012767   -0.02    101.70   
    19. A(C   3,C   2,C   4)          133.14 -0.003357   -0.75    132.38   
    20. A(C   4,C   2,O   6)          118.41 -0.002374    0.70    119.10   
    21. A(C   3,C   2,O   6)          108.40  0.005782    0.05    108.45   
    22. A(C   2,C   3,H   9)          126.43  0.003460    0.86    127.29   
    23. A(C   1,C   3,H   9)          126.27  0.001354   -0.85    125.42   
    24. A(C   1,C   3,C   2)          107.18 -0.004886   -0.09    107.09   
    25. A(C   2,C   4,O   5)          161.65 -0.002580    1.11    162.76   
    26. A(C   2,C   4,H  10)          103.29 -0.003014   -0.49    102.80   
    27. A(O   5,C   4,H  10)           64.75  0.000969    1.11     65.86   
    28. A(C   4,O   5,H  10)           13.02 -0.000327    0.27     13.29   
    29. A(C   0,O   6,C   2)          108.36  0.008788    0.09    108.45   
    30. A(C   4,H  10,O   5)          102.24 -0.000643   -1.11    101.13          0.26
    31. D(H   8,C   1,C   0,H   7)    -11.11 -0.003563    1.11    -10.00          0.38
    32. D(C   3,C   1,C   0,O   6)      1.36  0.001081   -0.11      1.25   
    33. D(H   8,C   1,C   0,O   6)    173.25 -0.002128    1.11    174.36   
    34. D(C   3,C   1,C   0,H   7)    177.00 -0.000354    1.11    178.11   
    35. D(C   2,C   3,C   1,H   8)   -173.18 -0.000000   -1.11   -174.29   
    36. D(H   9,C   3,C   1,C   0)   -175.85  0.001280    1.11   -174.74   
    37. D(H   9,C   3,C   2,O   6)    174.37 -0.002579   -1.11    173.26   
    38. D(C   1,C   3,C   2,O   6)     -1.86 -0.001426   -0.64     -2.49   
    39. D(C   1,C   3,C   2,C   4)    175.30 -0.000110   -1.11    174.19   
    40. D(C   2,C   3,C   1,C   0)      0.38  0.000232    0.44      0.83   
    41. D(H   9,C   3,C   1,H   8)     10.59  0.001048   -0.41     10.19   
    42. D(H   9,C   3,C   2,C   4)     -8.48 -0.001263   -1.11     -9.59   
    43. D(O   5,C   4,C   2,C   3)     53.31 -0.000962    1.11     54.43   
    44. D(H  10,C   4,C   2,O   6)   -176.89  0.002075   -1.11   -178.00   
    45. D(H  10,C   4,C   2,C   3)      6.18  0.000483   -0.43      5.76   
    46. D(O   5,C   4,C   2,O   6)   -129.76  0.000630    1.11   -128.64   
    47. D(H  10,O   5,C   4,C   2)    -52.06  0.001394   -1.11    -53.17          0.30
    48. D(C   0,O   6,C   2,C   4)   -174.92  0.001520    1.11   -173.81   
    49. D(C   0,O   6,C   2,C   3)      2.72  0.002535    0.60      3.32   
    50. D(C   2,O   6,C   0,H   7)   -178.84 -0.000961   -1.11   -179.95          0.26
    51. D(C   2,O   6,C   0,C   1)     -2.59 -0.002337   -0.31     -2.90   
    52. D(O   5,H  10,C   4,C   2)    165.22 -0.001577   -1.11    164.11   
    ----------------------------------------------------------------------------




    ----------------------------------------------------------------------------
                                  WARNING !!!
       The optimization did not converge but reached the maximum number of
       optimization cycles.
       Please check your results very carefully.
    ----------------------------------------------------------------------------






    ----------------------------------------------------------------------------
                                  WARNING !!!
       The optimization did not converge but reached the maximum number of
       optimization cycles.
       Please check your results very carefully.
    ----------------------------------------------------------------------------


----------
STATISTICS
----------

For the individual parts of the NEB, NEB-CI or NEB-TS run:

Number of iterations:
     NEB                               ... 93  64.1%
     TS optimization                   ... 52  35.9%
Number of SCF / gradient calculations:
     NEB                               ... 946  94.8%
     TS optimization                   ... 52  5.2%

----------
 TIMINGS
----------

For the individual parts of the NEB, NEB-CI or NEB-TS run:

Total                                  ...    84109.917 sec
NEB                                    ...    81274.130 sec  96.6%
TS Optimization                        ...     2835.788 sec  3.4%


                            ***************************************
                            *     ORCA property calculations      *
                            ***************************************

                                    ---------------------
                                    Active property flags
                                    ---------------------
   (+) Dipole Moment


------------------------------------------------------------------------------
                       ORCA ELECTRIC PROPERTIES CALCULATION
------------------------------------------------------------------------------

Dipole Moment Calculation                       ... on
Quadrupole Moment Calculation                   ... off
Polarizability Calculation                      ... off
GBWName                                         ... /scratch/c.c21095646/orca.56180374/orca.gbw
Electron density file                           ... /scratch/c.c21095646/orca.56180374/orca.scfp
The origin for moment calculation is the CENTER OF MASS  = ( 0.025259,  1.301495  0.145652)

-------------
DIPOLE MOMENT
-------------
                                X             Y             Z
Electronic contribution:      0.50881       4.28188       0.31464
Nuclear contribution   :     -0.07494      -6.19545      -0.35991
                        -----------------------------------------
Total Dipole Moment    :      0.43387      -1.91357      -0.04526
                        -----------------------------------------
Magnitude (a.u.)       :      1.96266
Magnitude (Debye)      :      4.98868



--------------------
Rotational spectrum 
--------------------
 
Rotational constants in cm-1:     0.293531     0.022357     0.020868 
Rotational constants in MHz :  8799.827315   670.244638   625.599793 

 Dipole components along the rotational axes: 
x,y,z [a.u.] :    -1.658205     0.944903    -0.457764 
x,y,z [Debye]:    -4.214822     2.401752    -1.163544 

 

Timings for individual modules:

Sum of individual times         ...    83533.147 sec (=1392.219 min)
GTO integral calculation        ...      319.469 sec (=   5.324 min)   0.4 %
SCF iterations                  ...     1556.880 sec (=  25.948 min)   1.9 %
SCF Gradient evaluation         ...      380.756 sec (=   6.346 min)   0.5 %
Geometry relaxation             ...        1.913 sec (=   0.032 min)   0.0 %
NEB Iterations                  ...    81274.130 sec (=1354.569 min)  97.3 %
                             ****ORCA TERMINATED NORMALLY****
TOTAL RUN TIME: 0 days 23 hours 22 minutes 9 seconds 916 msec
