------------------------------------------------------------
          Invoking FHI-aims ...

          When using FHI-aims, please cite the following reference:

            Volker Blum, Ralf Gehrke, Felix Hanke, Paula Havu,
            Ville Havu, Xinguo Ren, Karsten Reuter, and Matthias Scheffler,
            'Ab Initio Molecular Simulations with Numeric Atom-Centered Orbitals',
            Computer Physics Communications 180, 2175-2196 (2009)

          In addition, many other developments in FHI-aims are likely important for
          your particular application. If so, please cite them. A partial list of references
          is written at the end of this file. Thank you for giving credit to the authors
          of these developments.

          For general information about FHI-aims please find us at

            https://fhi-aims.org

          Online tutorials can be found at

            https://fhi-aims-club.gitlab.io/tutorials/tutorials-overview/

          For any questions about FHI-aims, please visit our slack channel at

            https://fhi-aims.slack.com

          and our main development and support site at

            https://aims-git.rz-berlin.mpg.de .

          The latter site, in particular, has a wiki to collect information, as well
          as an issue tracker to log discussions, suggest improvements, and report issues
          or bugs. https://aims-git.rz-berlin.mpg.de is also the main development site
          of the project and all new and updated code versions can be obtained there.
          Please send an email to aims-coordinators@fhi-berlin.mpg.de and we will add
          you to these sites. They are for you and everyone is welcome there.

------------------------------------------------------------



  Date     :  20231121, Time     :  164053.972
  Time zero on CPU 1             :   0.549073000000000E+00  s.
  Internal wall clock time zero  :           469816853.972  s.

  FHI-aims created a unique identifier for this run for later identification
  aims_uuid : D59F69C7-F0CF-4CB3-AAA0-1128A2391104

  Build configuration of the current instance of FHI-aims
  -------------------------------------------------------
  FHI-aims version      : 230612
  Commit number         : 0c86b0d53
  CMake host system     : Linux-3.10.0-1160.80.1.el7.x86_64
  CMake version         : 3.24.2
  Fortran compiler      : /apps/compilers/intel/2018.2/compilers_and_libraries_2018/linux/mpi/intel64/bin/mpif90 (Intel) version 18.0.2.20180210
  Fortran compiler flags: -O3 -ip -fp-model precise
  C compiler            : /apps/compilers/intel/2018.2/compilers_and_libraries_2018/linux/bin/intel64/icc (Intel) version 18.0.2.20180210
  C compiler flags      : -O3 -ip -fp-model precise -std=gnu99
  HIP compiler          :
  HIP compiler flags    :
  HIP GPU arch          :
  ELPA2 kernel          : AVX2
  Using MPI
  Using ScaLAPACK
  Using LibXC
  Using i-PI
  Using RLSY
  Linking against: /apps/compilers/intel/2018.2/compilers_and_libraries_2018/linux/mkl/lib/intel64/libmkl_intel_lp64.so
                   /apps/compilers/intel/2018.2/compilers_and_libraries_2018/linux/mkl/lib/intel64/libmkl_intel_thread.so
                   /apps/compilers/intel/2018.2/compilers_and_libraries_2018/linux/mkl/lib/intel64/libmkl_core.so
                   /apps/compilers/intel/2018.2/compilers_and_libraries_2018/linux/mkl/lib/intel64/libmkl_blacs_intelmpi_lp64.so
                   /apps/compilers/intel/2018.2/compilers_and_libraries_2018/linux/mkl/lib/intel64/libmkl_scalapack_lp64.so
                   /usr/lib64/libpthread.so

  Using       40 parallel tasks.
  Task        0 on host ccs3009 reporting.
  Task        1 on host ccs3009 reporting.
  Task        2 on host ccs3009 reporting.
  Task        3 on host ccs3009 reporting.
  Task        4 on host ccs3009 reporting.
  Task        5 on host ccs3009 reporting.
  Task        6 on host ccs3009 reporting.
  Task        7 on host ccs3009 reporting.
  Task        8 on host ccs3009 reporting.
  Task        9 on host ccs3009 reporting.
  Task       10 on host ccs3009 reporting.
  Task       11 on host ccs3009 reporting.
  Task       12 on host ccs3009 reporting.
  Task       13 on host ccs3009 reporting.
  Task       14 on host ccs3009 reporting.
  Task       15 on host ccs3009 reporting.
  Task       16 on host ccs3009 reporting.
  Task       17 on host ccs3009 reporting.
  Task       18 on host ccs3009 reporting.
  Task       19 on host ccs3009 reporting.
  Task       20 on host ccs3009 reporting.
  Task       21 on host ccs3009 reporting.
  Task       22 on host ccs3009 reporting.
  Task       23 on host ccs3009 reporting.
  Task       24 on host ccs3009 reporting.
  Task       25 on host ccs3009 reporting.
  Task       26 on host ccs3009 reporting.
  Task       27 on host ccs3009 reporting.
  Task       28 on host ccs3009 reporting.
  Task       29 on host ccs3009 reporting.
  Task       30 on host ccs3009 reporting.
  Task       31 on host ccs3009 reporting.
  Task       32 on host ccs3009 reporting.
  Task       33 on host ccs3009 reporting.
  Task       34 on host ccs3009 reporting.
  Task       35 on host ccs3009 reporting.
  Task       36 on host ccs3009 reporting.
  Task       37 on host ccs3009 reporting.
  Task       38 on host ccs3009 reporting.
  Task       39 on host ccs3009 reporting.

  Obtaining array dimensions for all initial allocations:
  
  -----------------------------------------------------------------------
  Parsing control.in (first pass over file, find array dimensions only).
  The contents of control.in will be repeated verbatim below
  unless switched off by setting 'verbatim_writeout .false.' .
  in the first line of control.in .
  -----------------------------------------------------------------------
  
  #===============================================================================
  # FHI-aims file: ./control.in
  # Created using the Atomic Simulation Environment (ASE)
  # Tue Nov 21 16:40:52 2023
  #===============================================================================
  xc_pre                             pbe 15
  spin                               none
  relativistic                       atomic_zora scalar
  sc_accuracy_etot                   0.001
  sc_accuracy_eev                    0.001
  sc_accuracy_rho                    1e-06
  sc_accuracy_forces                 0.0001
  override_warning_libxc             true
  xc                                 libxc MGGA_X_MBEEF+GGA_C_PBE_SOL
  use_dipole_correction              .true.
  k_grid                             3 3 1
  use_pimd_wrapper                   ccs3009 30124
  #===============================================================================
  
  ################################################################################
  #
  #  FHI-aims code project
  #  VB, Fritz-Haber Institut, 2009
  #
  #  Suggested "light" defaults for O atom (to be pasted into control.in file)
  #  Be sure to double-check any results obtained with these settings for post-processing,
  #  e.g., with the "tight" defaults and larger basis sets.
  #
  ################################################################################
    species        O
  #     global species definitions
      nucleus             8
      mass                15.9994
  #
      l_hartree           4
  #
      cut_pot             3.5  1.5  1.0
      basis_dep_cutoff    1e-4
  #
      radial_base         36 5.0
      radial_multiplier   1
       angular_grids specified
        division   0.2659   50
        division   0.4451  110
        division   0.6052  194
        division   0.7543  302
  #      division   0.8014  434
  #      division   0.8507  590
  #      division   0.8762  770
  #      division   0.9023  974
  #      division   1.2339 1202
  #      outer_grid 974
        outer_grid 302
  ################################################################################
  #
  #  Definition of "minimal" basis
  #
  ################################################################################
  #     valence basis states
      valence      2  s   2.
      valence      2  p   4.
  #     ion occupancy
      ion_occ      2  s   1.
      ion_occ      2  p   3.
  ################################################################################
  #
  #  Suggested additional basis functions. For production calculations,
  #  uncomment them one after another (the most important basis functions are
  #  listed first).
  #
  #  Constructed for dimers: 1.0 A, 1.208 A, 1.5 A, 2.0 A, 3.0 A
  #
  ################################################################################
  #  "First tier" - improvements: -699.05 meV to -159.38 meV
       hydro 2 p 1.8
       hydro 3 d 7.6
       hydro 3 s 6.4
  #  "Second tier" - improvements: -49.91 meV to -5.39 meV
  #     hydro 4 f 11.6
  #     hydro 3 p 6.2
  #     hydro 3 d 5.6
  #     hydro 5 g 17.6
  #     hydro 1 s 0.75
  #  "Third tier" - improvements: -2.83 meV to -0.50 meV
  #     ionic 2 p auto
  #     hydro 4 f 10.8
  #     hydro 4 d 4.7
  #     hydro 2 s 6.8
  #  "Fourth tier" - improvements: -0.40 meV to -0.12 meV
  #     hydro 3 p 5
  #     hydro 3 s 3.3
  #     hydro 5 g 15.6
  #     hydro 4 f 17.6
  #     hydro 4 d 14
  # Further basis functions - -0.08 meV and below
  #     hydro 3 s 2.1
  #     hydro 4 d 11.6
  #     hydro 3 p 16
  #     hydro 2 s 17.2
  ################################################################################
  #
  #  FHI-aims code project
  #  VB, Fritz-Haber Institut, 2010
  #
  #  Suggested "light" defaults for Zn atom (to be pasted into control.in file)
  #  Be sure to double-check any results obtained with these settings for post-processing,
  #  e.g., with the "tight" defaults and larger basis sets.
  #
  ################################################################################
    species        Zn
  #     global species definitions
      nucleus             30
      mass                65.409
  #
      l_hartree           4
  #
      cut_pot             3.5          1.5  1.0
      basis_dep_cutoff    1e-4
  #
      radial_base         53 5.0
      radial_multiplier   1
      angular_grids       specified
        division   0.5114   50
        division   0.8989  110
        division   1.2692  194
        division   1.6226  302
  #      division   1.7854  434
  #      division   2.0877  590
  #      division   2.1298  770
  #      division   2.1730  974
  #      division   2.5659 1202
        outer_grid  302
  ################################################################################
  #
  #  Definition of "minimal" basis
  #
  ################################################################################
  #     valence basis states
      valence      4  s   2.
      valence      3  p   6.
      valence      3  d  10.
  #     ion occupancy
      ion_occ      4  s   1.
      ion_occ      3  p   6.
      ion_occ      3  d   9.
  ################################################################################
  #
  #  Suggested additional basis functions. For production calculations,
  #  uncomment them one after another (the most important basis functions are
  #  listed first).
  #
  #  Constructed for dimers: 2.00 A, 2.30 A, 2.85 A, 3.50 A, 4.25 A
  #
  ################################################################################
  #  "First tier" - improvements: -270.82 meV to -12.81 meV
       hydro 2 p 1.7
       hydro 3 s 2.9
       hydro 4 p 5.4
       hydro 4 f 7.8
       hydro 3 d 4.5
  #  "Second tier" - improvements: -3.35 meV to -0.82 meV
  #     hydro 5 g 10.8
  #     hydro 2 p 2.4
  #     hydro 3 s 6.2
  #     hydro 3 d 3
  #  "Third tier" - improvements: -0.61 meV to -0.12 meV
  #     hydro 6 h 15.2
  #     ionic 4 p auto
  #     hydro 5 s 12.8
  #     hydro 4 f 5.4
  #     hydro 4 d 7
  #  Further functions - improvements: -0.16 meV and below
  #     hydro 4 f 20
  #     hydro 3 p 2.2
  #     hydro 5 f 6.4
  #     hydro 5 g 8
  ################################################################################
  #
  #  FHI-aims code project
  #  VB, Fritz-Haber Institut, 2009
  #
  #  Suggested "light" defaults for Pd atom (to be pasted into control.in file)
  #  Be sure to double-check any results obtained with these settings for post-processing,
  #  e.g., with the "tight" defaults and larger basis sets.
  #
  ################################################################################
    species        Pd
  #     global species definitions
      nucleus             46
      mass                106.42
  #
      l_hartree           4
  #
      cut_pot             3.5  1.5  1.0
      basis_dep_cutoff    1e-4
  #
      radial_base         62 5.0
      radial_multiplier   1
      angular_grids specified
        division   0.5211   50
        division   0.9161  110
        division   1.2296  194
        division   1.5678  302
  #      division   1.9785  434
  #      division   2.0474  590
  #      division   2.1195  770
  #      division   2.1568  974
  #      division   2.7392 1202
  #       outer_grid  974
         outer_grid  302
  ################################################################################
  #
  #  Definition of "minimal" basis
  #
  ################################################################################
  #     valence basis states
      valence      5  s   1.
      valence      4  p   6.
      valence      4  d   9.
  #     ion occupancy
      ion_occ     5  s   0.
      ion_occ     4  p   6.
      ion_occ     4  d   8.
  ################################################################################
  #
  #  Suggested additional basis functions. For production calculations,
  #  uncomment them one after another (the most important basis functions are
  #  listed first).
  #
  #  Constructed for dimers: 2.0 A, 2.275 A, 2.75 A, 3.75 A
  #
  ################################################################################
  #  "First tier" - max. impr. -120.76  meV, min. impr. -5.71 meV
       ionic 5 p auto
       hydro 4 f 8
  #     hydro 5 g 10
       hydro 3 s 2.6
       hydro 3 d 2.5
  #  "Second tier" - max. impr. -5.00  meV, min. impr. -0.62 meV
  #     hydro 5 f 17.2
  #     hydro 6 h 14
  #     hydro 4 d 4
  #     hydro 5 f 7.6
  #     hydro 3 p 3.3
  #     hydro 4 s 9.4
  #  "Third tier" - max. impr. -0.54  meV, min. impr. -0.14 meV
  #     hydro 4 f 20
  #     hydro 5 g 12.8
  #     hydro 5 d 9.8
  #     hydro 6 h 15.2
  #     hydro 5 s 10
  #     hydro 6 p 9.8
  #  "Fourth tier" - max. impr. -0.15  meV, min. impr. -0.05 meV
  #     hydro 5 f 9.2
  #     hydro 2 s 5.6
  #     hydro 5 f 43.2
  #     hydro 5 d 13.2
  #     hydro 5 g 14
  #     hydro 4 p 4.7
  
  -----------------------------------------------------------------------
  Completed first pass over input file control.in .
  -----------------------------------------------------------------------
  
  
  -----------------------------------------------------------------------
  Parsing geometry.in (first pass over file, find array dimensions only).
  The contents of geometry.in will be repeated verbatim below
  unless switched off by setting 'verbatim_writeout .false.' .
  in the first line of geometry.in .
  -----------------------------------------------------------------------
  
  #=======================================================
  # FHI-aims file: ./geometry.in
  # Created using the Atomic Simulation Environment (ASE)
  # Tue Nov 21 16:40:52 2023
  #=======================================================
  lattice_vector 16.3029000000000011 0.0000000000000000 0.0000000000000000
  lattice_vector -8.1514500000000005 14.1187255999999994 0.0000000000000000
  lattice_vector 0.0000000000000000 0.0000000000000000 29.2228999999999992
  atom_frac 0.0666699993149168 0.9333299986298332 0.3765090440544915 O
  atom_frac 0.2666700002635011 0.3333300005270020 0.3765090440544915 O
  atom_frac 0.2666699999473062 0.5333299998946123 0.3765090440544915 O
  atom_frac 0.2666699993149168 0.9333299986298332 0.3765090440544915 O
  atom_frac 0.4666700005796957 0.1333300011593914 0.3765090440544915 O
  atom_frac 0.4666700002635010 0.3333300005270020 0.3765090440544915 O
  atom_frac 0.4666699999473062 0.5333299998946123 0.3765090440544915 O
  atom_frac 0.4666699996311115 0.7333299992622229 0.3765090440544915 O
  atom_frac 0.4666699993149168 0.9333299986298332 0.3765090440544915 O
  atom_frac 0.6666700005796956 0.1333300011593914 0.3765090440544915 O
  atom_frac 0.6666699999473064 0.5333299998946123 0.3765090440544915 O
  atom_frac 0.6666699996311115 0.7333299992622229 0.3765090440544915 O
  atom_frac 0.6666699993149168 0.9333299986298332 0.3765090440544915 O
  atom_frac 0.8666700005796957 0.1333300011593914 0.3765090440544915 O
  atom_frac 0.8666700002635011 0.3333300005270020 0.3765090440544915 O
  atom_frac 0.8666699999473064 0.5333299998946123 0.3765090440544915 O
  atom_frac 0.8666699996311115 0.7333299992622229 0.3765090440544915 O
  atom_frac 0.8666699993149168 0.9333299986298332 0.3765090440544915 O
  atom_frac 0.5333300000526939 0.4666700001053877 0.3980272760574755 Zn
  atom_frac 0.3333300003688887 0.2666700007377773 0.3980272760574755 Zn
  atom_frac 0.5333299997364992 0.6666699994729982 0.3980272760574755 Zn
  atom_frac 0.1333299997364992 0.6666699994729982 0.3980272760574755 Zn
  atom_frac 0.5333299994203045 0.8666699988406087 0.3980272760574755 Zn
  atom_frac 0.3333300000526939 0.4666700001053877 0.3980272760574755 Zn
  atom_frac 0.7333300006850837 0.0666700013701668 0.3980272760574755 Zn
  atom_frac 0.1333300006850834 0.0666700013701668 0.3980272760574755 Zn
  atom_frac 0.7333300003688886 0.2666700007377773 0.3980272760574755 Zn
  atom_frac 0.3333299997364992 0.6666699994729982 0.3980272760574755 Zn
  atom_frac 0.7333300000526939 0.4666700001053877 0.3980272760574755 Zn
  atom_frac 0.1333299994203045 0.8666699988406087 0.3980272760574755 Zn
  atom_frac 0.7333299997364993 0.6666699994729982 0.3980272760574755 Zn
  atom_frac 0.3333299994203045 0.8666699988406087 0.3980272760574755 Zn
  atom_frac 0.7333299994203047 0.8666699988406087 0.3980272760574755 Zn
  atom_frac 0.1333300000526939 0.4666700001053877 0.3980272760574755 Zn
  atom_frac 0.9333300006850834 0.0666700013701668 0.3980272760574755 Zn
  atom_frac 0.5333300006850835 0.0666700013701668 0.3980272760574755 Zn
  atom_frac 0.9333300003688886 0.2666700007377773 0.3980272760574755 Zn
  atom_frac 0.3333300006850834 0.0666700013701668 0.3980272760574755 Zn
  atom_frac 0.9333300000526938 0.4666700001053877 0.3980272760574755 Zn
  atom_frac 0.5333300003688888 0.2666700007377773 0.3980272760574755 Zn
  atom_frac 0.9333299997364992 0.6666699994729982 0.3980272760574755 Zn
  atom_frac 0.1333300003688886 0.2666700007377773 0.3980272760574755 Zn
  atom_frac 0.9333299994203044 0.8666699988406087 0.3980272760574755 Zn
  atom_frac 0.7333300003688886 0.2666700007377773 0.4662431224656006 O
  atom_frac 0.3333300000526939 0.4666700001053877 0.4662431224656006 O
  atom_frac 0.5333300003688888 0.2666700007377773 0.4662431224656006 O
  atom_frac 0.7333300000526939 0.4666700001053877 0.4662431224656006 O
  atom_frac 0.1333299997364992 0.6666699994729982 0.4662431224656006 O
  atom_frac 0.3333300006850834 0.0666700013701668 0.4662431224656006 O
  atom_frac 0.7333299997364993 0.6666699994729982 0.4662431224656006 O
  atom_frac 0.5333300000526939 0.4666700001053877 0.4662431224656006 O
  atom_frac 0.3333299997364992 0.6666699994729982 0.4662431224656006 O
  atom_frac 0.7333299994203047 0.8666699988406087 0.4662431224656006 O
  atom_frac 0.1333300000526939 0.4666700001053877 0.4662431224656006 O
  atom_frac 0.5333299997364992 0.6666699994729982 0.4662431224656006 O
  atom_frac 0.9333300006850834 0.0666700013701668 0.4662431224656006 O
  atom_frac 0.1333300006850834 0.0666700013701668 0.4662431224656006 O
  atom_frac 0.3333299994203045 0.8666699988406087 0.4662431224656006 O
  atom_frac 0.9333300003688886 0.2666700007377773 0.4662431224656006 O
  atom_frac 0.5333299994203045 0.8666699988406087 0.4662431224656006 O
  atom_frac 0.3333300003688887 0.2666700007377773 0.4662431224656006 O
  atom_frac 0.9333300000526938 0.4666700001053877 0.4662431224656006 O
  atom_frac 0.1333299994203045 0.8666699988406087 0.4662431224656006 O
  atom_frac 0.7333300006850837 0.0666700013701668 0.4662431224656006 O
  atom_frac 0.9333299997364992 0.6666699994729982 0.4662431224656006 O
  atom_frac 0.5333300006850835 0.0666700013701668 0.4662431224656006 O
  atom_frac 0.1333300003688886 0.2666700007377773 0.4662431224656006 O
  atom_frac 0.9333299994203044 0.8666699988406087 0.4662431224656006 O
  atom_frac 0.6666699996311115 0.7333299992622229 0.4877613544685846 Zn
  atom_frac 0.4666700005796957 0.1333300011593914 0.4877613544685846 Zn
  atom_frac 0.0666699993149168 0.9333299986298332 0.4877613544685846 Zn
  atom_frac 0.4666699993149168 0.9333299986298332 0.4877613544685846 Zn
  atom_frac 0.6666699993149168 0.9333299986298332 0.4877613544685846 Zn
  atom_frac 0.0666699996311115 0.7333299992622229 0.4877613544685846 Zn
  atom_frac 0.2666699996311115 0.7333299992622229 0.4877613544685846 Zn
  atom_frac 0.4666700002635010 0.3333300005270020 0.4877613544685846 Zn
  atom_frac 0.8666700005796957 0.1333300011593914 0.4877613544685846 Zn
  atom_frac 0.6666700005796956 0.1333300011593914 0.4877613544685846 Zn
  atom_frac 0.2666700002635011 0.3333300005270020 0.4877613544685846 Zn
  atom_frac 0.0666700002635010 0.3333300005270020 0.4877613544685846 Zn
  atom_frac 0.8666700002635011 0.3333300005270020 0.4877613544685846 Zn
  atom_frac 0.0666700005796957 0.1333300011593914 0.4877613544685846 Zn
  atom_frac 0.6666700002635010 0.3333300005270020 0.4877613544685846 Zn
  atom_frac 0.4666699999473062 0.5333299998946123 0.4877613544685846 Zn
  atom_frac 0.8666699999473064 0.5333299998946123 0.4877613544685846 Zn
  atom_frac 0.2666699993149168 0.9333299986298332 0.4877613544685846 Zn
  atom_frac 0.2666700005796956 0.1333300011593914 0.4877613544685846 Zn
  atom_frac 0.6666699999473064 0.5333299998946123 0.4877613544685846 Zn
  atom_frac 0.8666699996311115 0.7333299992622229 0.4877613544685846 Zn
  atom_frac 0.2666699999473062 0.5333299998946123 0.4877613544685846 Zn
  atom_frac 0.4666699996311115 0.7333299992622229 0.4877613544685846 Zn
  atom_frac 0.0666699999473062 0.5333299998946123 0.4877613544685846 Zn
  atom_frac 0.8666699993149168 0.9333299986298332 0.4877613544685846 Zn
  atom_frac 0.4666699999473062 0.5333299998946123 0.5559772008767099 O
  atom_frac 0.2666700002635011 0.3333300005270020 0.5559772008767099 O
  atom_frac 0.0666699996311115 0.7333299992622229 0.5559772008767099 O
  atom_frac 0.4666700005796957 0.1333300011593914 0.5559772008767099 O
  atom_frac 0.8666700005796957 0.1333300011593914 0.5559772008767099 O
  atom_frac 0.6666700002635010 0.3333300005270020 0.5559772008767099 O
  atom_frac 0.2666699996311115 0.7333299992622229 0.5559772008767099 O
  atom_frac 0.4666699996311115 0.7333299992622229 0.5559772008767099 O
  atom_frac 0.2666700005796956 0.1333300011593914 0.5559772008767099 O
  atom_frac 0.8666700002635011 0.3333300005270020 0.5559772008767099 O
  atom_frac 0.0666699993149168 0.9333299986298332 0.5559772008767099 O
  atom_frac 0.6666699999473064 0.5333299998946123 0.5559772008767099 O
  atom_frac 0.0666700002635010 0.3333300005270020 0.5559772008767099 O
  atom_frac 0.4666700002635010 0.3333300005270020 0.5559772008767099 O
  atom_frac 0.8666699999473064 0.5333299998946123 0.5559772008767099 O
  atom_frac 0.4666699993149168 0.9333299986298332 0.5559772008767099 O
  atom_frac 0.2666699999473062 0.5333299998946123 0.5559772008767099 O
  atom_frac 0.6666699996311115 0.7333299992622229 0.5559772008767099 O
  atom_frac 0.2666699993149168 0.9333299986298332 0.5559772008767099 O
  atom_frac 0.8666699996311115 0.7333299992622229 0.5559772008767099 O
  atom_frac 0.0666699999473062 0.5333299998946123 0.5559772008767099 O
  atom_frac 0.0666700005796957 0.1333300011593914 0.5559772008767099 O
  atom_frac 0.6666700005796956 0.1333300011593914 0.5559772008767099 O
  atom_frac 0.6666699993149168 0.9333299986298332 0.5559772008767099 O
  atom_frac 0.8666699993149168 0.9333299986298332 0.5559772008767099 O
  atom_frac 0.9333300006850834 0.0666700013701668 0.5774954328796938 Zn
  atom_frac 0.1333300006850834 0.0666700013701668 0.5774954328796938 Zn
  atom_frac 0.5333299994203045 0.8666699988406087 0.5774954328796938 Zn
  atom_frac 0.7333300000526939 0.4666700001053877 0.5774954328796938 Zn
  atom_frac 0.3333299997364992 0.6666699994729982 0.5774954328796938 Zn
  atom_frac 0.1333299997364992 0.6666699994729982 0.5774954328796938 Zn
  atom_frac 0.9333300003688886 0.2666700007377773 0.5774954328796938 Zn
  atom_frac 0.5333300000526939 0.4666700001053877 0.5774954328796938 Zn
  atom_frac 0.5333300006850835 0.0666700013701668 0.5774954328796938 Zn
  atom_frac 0.1333300000526939 0.4666700001053877 0.5774954328796938 Zn
  atom_frac 0.7333299997364993 0.6666699994729982 0.5774954328796938 Zn
  atom_frac 0.7333300006850837 0.0666700013701668 0.5774954328796938 Zn
  atom_frac 0.9333300000526938 0.4666700001053877 0.5774954328796938 Zn
  atom_frac 0.3333300000526939 0.4666700001053877 0.5774954328796938 Zn
  atom_frac 0.1333299994203045 0.8666699988406087 0.5774954328796938 Zn
  atom_frac 0.3333300003688887 0.2666700007377773 0.5774954328796938 Zn
  atom_frac 0.5333299997364992 0.6666699994729982 0.5774954328796938 Zn
  atom_frac 0.7333299994203047 0.8666699988406087 0.5774954328796938 Zn
  atom_frac 0.9333299997364992 0.6666699994729982 0.5774954328796938 Zn
  atom_frac 0.3333299994203045 0.8666699988406087 0.5774954328796938 Zn
  atom_frac 0.7333300003688886 0.2666700007377773 0.5774954328796938 Zn
  atom_frac 0.5333300003688888 0.2666700007377773 0.5774954328796938 Zn
  atom_frac 0.3333300006850834 0.0666700013701668 0.5774954328796938 Zn
  atom_frac 0.1333300003688886 0.2666700007377773 0.5774954328796938 Zn
  atom_frac 0.9333299994203044 0.8666699988406087 0.5774954328796938 Zn
  atom_frac 0.7333300006850837 0.0666700013701668 0.6457112792878188 O
  atom_frac 0.5333300003688888 0.2666700007377773 0.6457112792878188 O
  atom_frac 0.5333299997364992 0.6666699994729982 0.6457112792878188 O
  atom_frac 0.9333300003688886 0.2666700007377773 0.6457112792878188 O
  atom_frac 0.7333299997364993 0.6666699994729982 0.6457112792878188 O
  atom_frac 0.3333299997364992 0.6666699994729982 0.6457112792878188 O
  atom_frac 0.3333300006850834 0.0666700013701668 0.6457112792878188 O
  atom_frac 0.3333300000526939 0.4666700001053877 0.6457112792878188 O
  atom_frac 0.3333300003688887 0.2666700007377773 0.6457112792878188 O
  atom_frac 0.7333300003688886 0.2666700007377773 0.6457112792878188 O
  atom_frac 0.9333300000526938 0.4666700001053877 0.6457112792878188 O
  atom_frac 0.5333300006850835 0.0666700013701668 0.6457112792878188 O
  atom_frac 0.7333299994203047 0.8666699988406087 0.6457112792878188 O
  atom_frac 0.1333299997364992 0.6666699994729982 0.6457112792878188 O
  atom_frac 0.5333299994203045 0.8666699988406087 0.6457112792878188 O
  atom_frac 0.5333300000526939 0.4666700001053877 0.6457112792878188 O
  atom_frac 0.1333300006850834 0.0666700013701668 0.6457112792878188 O
  atom_frac 0.9333299997364992 0.6666699994729982 0.6457112792878188 O
  atom_frac 0.1333300003688886 0.2666700007377773 0.6457112792878188 O
  atom_frac 0.7333300000526939 0.4666700001053877 0.6457112792878188 O
  atom_frac 0.9333300006850834 0.0666700013701668 0.6457112792878188 O
  atom_frac 0.3333299994203045 0.8666699988406087 0.6457112792878188 O
  atom_frac 0.1333299994203045 0.8666699988406087 0.6457112792878188 O
  atom_frac 0.1333300000526939 0.4666700001053877 0.6457112792878188 O
  atom_frac 0.9333299994203044 0.8666699988406087 0.6457112792878188 O
  atom_frac 0.8666700002635011 0.3333300005270020 0.6672295112908028 Zn
  atom_frac 0.6666700002635010 0.3333300005270020 0.6672295112908028 Zn
  atom_frac 0.4666699993149168 0.9333299986298332 0.6672295112908028 Zn
  atom_frac 0.2666699996311115 0.7333299992622229 0.6672295112908028 Zn
  atom_frac 0.2666699999473062 0.5333299998946123 0.6672295112908028 Zn
  atom_frac 0.0666700002635010 0.3333300005270020 0.6672295112908028 Zn
  atom_frac 0.6666699993149168 0.9333299986298332 0.6672295112908028 Zn
  atom_frac 0.4666700002635010 0.3333300005270020 0.6672295112908028 Zn
  atom_frac 0.8666699999473064 0.5333299998946123 0.6672295112908028 Zn
  atom_frac 0.0666699993149168 0.9333299986298332 0.6672295112908028 Zn
  atom_frac 0.0666699996311115 0.7333299992622229 0.6672295112908028 Zn
  atom_frac 0.6666699999473064 0.5333299998946123 0.6672295112908028 Zn
  atom_frac 0.4666699996311115 0.7333299992622229 0.6672295112908028 Zn
  atom_frac 0.6666700005796956 0.1333300011593914 0.6672295112908028 Zn
  atom_frac 0.0666700005796957 0.1333300011593914 0.6672295112908028 Zn
  atom_frac 0.8666700005796957 0.1333300011593914 0.6672295112908028 Zn
  atom_frac 0.8666699996311115 0.7333299992622229 0.6672295112908028 Zn
  atom_frac 0.4666700005796957 0.1333300011593914 0.6672295112908028 Zn
  atom_frac 0.2666700005796956 0.1333300011593914 0.6672295112908028 Zn
  atom_frac 0.0666699999473062 0.5333299998946123 0.6672295112908028 Zn
  atom_frac 0.2666699993149168 0.9333299986298332 0.6672295112908028 Zn
  atom_frac 0.6666699996311115 0.7333299992622229 0.6672295112908028 Zn
  atom_frac 0.4666699999473062 0.5333299998946123 0.6672295112908028 Zn
  atom_frac 0.2666700002635011 0.3333300005270020 0.6672295112908028 Zn
  atom_frac 0.8666699993149168 0.9333299986298332 0.6672295112908028 Zn
  atom_frac 0.2666699996311115 0.7333299992622229 0.7354453576989280 O
  atom_frac 0.6666699993149168 0.9333299986298332 0.7354453576989280 O
  atom_frac 0.6666700005796956 0.1333300011593914 0.7354453576989280 O
  atom_frac 0.6666699999473064 0.5333299998946123 0.7354453576989280 O
  atom_frac 0.0666700005796957 0.1333300011593914 0.7354453576989280 O
  atom_frac 0.0666700002635010 0.3333300005270020 0.7354453576989280 O
  atom_frac 0.8666699999473064 0.5333299998946123 0.7354453576989280 O
  atom_frac 0.4666699999473062 0.5333299998946123 0.7354453576989280 O
  atom_frac 0.2666700005796956 0.1333300011593914 0.7354453576989280 O
  atom_frac 0.0666699996311115 0.7333299992622229 0.7354453576989280 O
  atom_frac 0.0666699993149168 0.9333299986298332 0.7354453576989280 O
  atom_frac 0.8666700005796957 0.1333300011593914 0.7354453576989280 O
  atom_frac 0.4666699993149168 0.9333299986298332 0.7354453576989280 O
  atom_frac 0.4666700002635010 0.3333300005270020 0.7354453576989280 O
  atom_frac 0.6666699996311115 0.7333299992622229 0.7354453576989280 O
  atom_frac 0.8666699996311115 0.7333299992622229 0.7354453576989280 O
  atom_frac 0.6666700002635010 0.3333300005270020 0.7354453576989280 O
  atom_frac 0.2666700002635011 0.3333300005270020 0.7354453576989280 O
  atom_frac 0.0666699999473062 0.5333299998946123 0.7354453576989280 O
  atom_frac 0.4666700005796957 0.1333300011593914 0.7354453576989280 O
  atom_frac 0.2666699999473062 0.5333299998946123 0.7354453576989280 O
  atom_frac 0.8666700002635011 0.3333300005270020 0.7354453576989280 O
  atom_frac 0.4666699996311115 0.7333299992622229 0.7354453576989280 O
  atom_frac 0.2666699993149168 0.9333299986298332 0.7354453576989280 O
  atom_frac 0.8666699993149168 0.9333299986298332 0.7354453576989280 O
  atom_frac 0.9333300000526938 0.4666700001053877 0.7569635897019120 Zn
  atom_frac 0.1333300000526939 0.4666700001053877 0.7569635897019120 Zn
  atom_frac 0.9333300006850834 0.0666700013701668 0.7569635897019120 Zn
  atom_frac 0.5333299997364992 0.6666699994729982 0.7569635897019120 Zn
  atom_frac 0.3333300003688887 0.2666700007377773 0.7569635897019120 Zn
  atom_frac 0.1333299997364992 0.6666699994729982 0.7569635897019120 Zn
  atom_frac 0.1333300003688886 0.2666700007377773 0.7569635897019120 Zn
  atom_frac 0.5333300000526939 0.4666700001053877 0.7569635897019120 Zn
  atom_frac 0.9333299997364992 0.6666699994729982 0.7569635897019120 Zn
  atom_frac 0.7333300006850837 0.0666700013701668 0.7569635897019120 Zn
  atom_frac 0.3333300006850834 0.0666700013701668 0.7569635897019120 Zn
  atom_frac 0.9333300003688886 0.2666700007377773 0.7569635897019120 Zn
  atom_frac 0.7333300000526939 0.4666700001053877 0.7569635897019120 Zn
  atom_frac 0.7333299994203047 0.8666699988406087 0.7569635897019120 Zn
  atom_frac 0.5333300003688888 0.2666700007377773 0.7569635897019120 Zn
  atom_frac 0.3333299997364992 0.6666699994729982 0.7569635897019120 Zn
  atom_frac 0.5333300006850835 0.0666700013701668 0.7569635897019120 Zn
  atom_frac 0.9333299994203044 0.8666699988406087 0.7569635897019120 Zn
  atom_frac 0.3767540967599198 0.3921001004811779 0.2430364102980882 Pd
  atom_frac 0.3767540967599198 0.3921001004811779 0.2943660182425427 Pd
  atom_frac 0.4562900485670623 0.3125641490512682 0.2943660182425427 Pd
  atom_frac 0.4562900481898295 0.5511720033409973 0.2943660182425427 Pd
  atom_frac 0.6153619518041145 0.3921001004811779 0.2430364102980882 Pd
  atom_frac 0.6153619518041145 0.3921001004811779 0.2943660182425427 Pd
  atom_frac 0.5358259999969720 0.4716360519110875 0.2430364102980882 Pd
  atom_frac 0.6153619514268817 0.6307079547709068 0.2430364102980882 Pd
  atom_frac 0.6153619514268817 0.6307079547709068 0.2943660182425427 Pd
  atom_frac 0.6948979032340242 0.5511720033409973 0.2943660182425427 Pd
  
  -----------------------------------------------------------------------
  Completed first pass over input file geometry.in .
  -----------------------------------------------------------------------
  

  Basic array size parameters:
  | Number of species                 :        3
  | Number of atoms                   :      246
  | Number of lattice vectors         :        3
  | Max. basis fn. angular momentum   :        3
  | Max. atomic/ionic basis occupied n:        5
  | Max. number of basis fn. types    :        3
  | Max. radial fns per species/type  :       10
  | Max. logarithmic grid size        :     1444
  | Max. radial integration grid size :       62
  | Max. angular integration grid size:      302
  | Max. angular grid division number :        8
  | Radial grid for Hartree potential :     1444
  | Number of spin channels           :        1

------------------------------------------------------------
          Reading file control.in.
------------------------------------------------------------
  Pre-SCF XC: Using PBE gradient-corrected functionals.
  Spin treatment: No spin polarisation.
  Scalar relativistic treatment of kinetic energy: on-site free-atom approximation to ZORA.
  Convergence accuracy of total energy:  0.1000E-02
  Convergence accuracy of sum of eigenvalues:  0.1000E-02
  Convergence accuracy of self-consistent charge density:  0.1000E-05
  Convergence accuracy of forces:  0.1000E-03
  XC: Using LibXC. Please refer to LibXC output for further details.
  Using libxc - Initializing
  Libxc version: 6.1.0


  ** PLEASE ** be careful using LibXC. Whilst most of the LDA, GGA and MGGA functionals,
  and hybrid variations therein, should be stable (though we always recommend testing!),
  there are several fancy functionals with e.g. range-separation, like HSE03/HSE06/LC-PBEh,
  and also MGGA functionals that depend on the laplacian of the density, like BR89,
  that are not fully implemented due to the infrastrucutre for these functionals being incomplete or non-generic.
  If you want to use these functionals please contact the development team and we will work on them with you!

  You have selected libxc functional MGGA_X_MBEEF (249)
    - Description: mBEEF exchange
    - Type: MGGA(Exchange)
    - Reference to Literature:
      [1] J. Wellendorff, K. T. Lundgaard, K. W. Jacobsen, and T. Bligaard.,  J. Chem. Phys. 140, 144107 (2014)

  You have selected libxc functional GGA_C_PBE_SOL (133)
    - Description: Perdew, Burke & Ernzerhof SOL
    - Type: GGA(Correlation)
    - Reference to Literature:
      [1] J. P. Perdew, A. Ruzsinszky, G. I. Csonka, O. A. Vydrov, G. E. Scuseria, L. A. Constantin, X. Zhou, and K. Burke.,  Phys. Rev. Lett. 100, 136406 (2008)

  Switching on meta-ggas
  Using dipole correction.
  Found k-point grid:         3         3         1
  Using external wrapper (i-PI) for performing (path integral) molecular dynamics
  **Attention: initial geometry.in file will be ignored!
 
  Reading configuration options for species O                   .
  | Found nuclear charge :   8.0000
  | Found atomic mass :    15.9994000000000      amu
  | Found l_max for Hartree potential  :   4
  | Found cutoff potl. onset [A], width [A], scale factor :    3.50000    1.50000    1.00000
  | Threshold for basis-dependent cutoff potential is   0.100000E-03
  | Found data for basic radial integration grid :    36 points, outermost radius =    5.000 A
  | Found multiplier for basic radial grid :   1
  | Found angular grid specification: user-specified.
  | Specified grid contains     5 separate shells.
  | Check grid settings after all constraints further below.
  | Found free-atom valence shell :  2 s   2.000
  | Found free-atom valence shell :  2 p   4.000
  | Found free-ion valence shell :  2 s   1.000
  | Found free-ion valence shell :  2 p   3.000
  | Found hydrogenic basis function :  2 p   1.800
  | Found hydrogenic basis function :  3 d   7.600
  | Found hydrogenic basis function :  3 s   6.400
  Species O                   : Missing cutoff potential type.
  Defaulting to exp(1/x)/(1-x)^2 type cutoff potential.
  Species O : No 'logarithmic' tag. Using default grid for free atom:
  | Default logarithmic grid data [bohr] : 0.1000E-03 0.1000E+03 0.1012E+01
  Species O : On-site basis accuracy parameter (for Gram-Schmidt orthonormalisation) not specified.
  Using default value basis_acc =  0.1000000E-03.
  Species O                   : Using default innermost maximum threshold i_radial=  2 for radial functions.
  Species O                   : Default cutoff onset for free atom density etc. : 0.35000000E+01 AA.
  Species O                   : Basic radial grid will be enhanced according to radial_multiplier =   1, to contain    36 grid points.
 
  Reading configuration options for species Zn                  .
  | Found nuclear charge :  30.0000
  | Found atomic mass :    65.4090000000000      amu
  | Found l_max for Hartree potential  :   4
  | Found cutoff potl. onset [A], width [A], scale factor :    3.50000    1.50000    1.00000
  | Threshold for basis-dependent cutoff potential is   0.100000E-03
  | Found data for basic radial integration grid :    53 points, outermost radius =    5.000 A
  | Found multiplier for basic radial grid :   1
  | Found angular grid specification: user-specified.
  | Specified grid contains     5 separate shells.
  | Check grid settings after all constraints further below.
  | Found free-atom valence shell :  4 s   2.000
  | Found free-atom valence shell :  3 p   6.000
  | Found free-atom valence shell :  3 d  10.000
  | Found free-ion valence shell :  4 s   1.000
  | Found free-ion valence shell :  3 p   6.000
  | Found free-ion valence shell :  3 d   9.000
  | Found hydrogenic basis function :  2 p   1.700
  | Found hydrogenic basis function :  3 s   2.900
  | Found hydrogenic basis function :  4 p   5.400
  | Found hydrogenic basis function :  4 f   7.800
  | Found hydrogenic basis function :  3 d   4.500
  Species Zn                  : Missing cutoff potential type.
  Defaulting to exp(1/x)/(1-x)^2 type cutoff potential.
  Species Zn: No 'logarithmic' tag. Using default grid for free atom:
  | Default logarithmic grid data [bohr] : 0.1000E-03 0.1000E+03 0.1012E+01
  Species Zn: On-site basis accuracy parameter (for Gram-Schmidt orthonormalisation) not specified.
  Using default value basis_acc =  0.1000000E-03.
  Species Zn                  : Using default innermost maximum threshold i_radial=  2 for radial functions.
  Species Zn                  : Default cutoff onset for free atom density etc. : 0.35000000E+01 AA.
  Species Zn                  : Basic radial grid will be enhanced according to radial_multiplier =   1, to contain    53 grid points.
 
  Reading configuration options for species Pd                  .
  | Found nuclear charge :  46.0000
  | Found atomic mass :    106.420000000000      amu
  | Found l_max for Hartree potential  :   4
  | Found cutoff potl. onset [A], width [A], scale factor :    3.50000    1.50000    1.00000
  | Threshold for basis-dependent cutoff potential is   0.100000E-03
  | Found data for basic radial integration grid :    62 points, outermost radius =    5.000 A
  | Found multiplier for basic radial grid :   1
  | Found angular grid specification: user-specified.
  | Specified grid contains     5 separate shells.
  | Check grid settings after all constraints further below.
  | Found free-atom valence shell :  5 s   1.000
  | Found free-atom valence shell :  4 p   6.000
  | Found free-atom valence shell :  4 d   9.000
  | Found free-ion valence shell :  5 s   0.000
  | Found free-ion valence shell :  4 p   6.000
  | Found free-ion valence shell :  4 d   8.000
  | Found ionic basis function :  5 p , default cutoff radius.
  | Found hydrogenic basis function :  4 f   8.000
  | Found hydrogenic basis function :  3 s   2.600
  | Found hydrogenic basis function :  3 d   2.500
  Species Pd                  : Missing cutoff potential type.
  Defaulting to exp(1/x)/(1-x)^2 type cutoff potential.
  Species Pd: No 'logarithmic' tag. Using default grid for free atom:
  | Default logarithmic grid data [bohr] : 0.1000E-03 0.1000E+03 0.1012E+01
  | Will include ionic basis functions of  2.0-fold positive Pd                   ion.
  Species Pd: On-site basis accuracy parameter (for Gram-Schmidt orthonormalisation) not specified.
  Using default value basis_acc =  0.1000000E-03.
  Species Pd                  : Using default innermost maximum threshold i_radial=  2 for radial functions.
  Species Pd                  : Default cutoff onset for free atom density etc. : 0.35000000E+01 AA.
  Species Pd                  : Basic radial grid will be enhanced according to radial_multiplier =   1, to contain    62 grid points.
 
  Finished reading input file 'control.in'.
 
------------------------------------------------------------


------------------------------------------------------------
          Reading geometry description geometry.in.
------------------------------------------------------------
  | The smallest distance between any two atoms is         1.50000000 AA.
  | The first atom of this pair is atom number                    241 .
  | The second atom of this pair is atom number                   242 .
  | Wigner-Seitz cell of the first atom image           0     0     0 .
  | (The Wigner-Seitz cell of the second atom is 0 0 0  by definition.)

  Symmetry information by spglib:
  | Precision set to  0.1E-04
  | Number of Operations  : 1
  | Space group           : 1
  | International         : P1
  | Schoenflies           : C1^1
  Input structure read successfully.
  The structure contains      246 atoms,  and a total of       4944.000 electrons.

  Input geometry:
  | Unit cell:
  |       16.30290000        0.00000000        0.00000000
  |       -8.15145000       14.11872560        0.00000000
  |        0.00000000        0.00000000       29.22290000
  | Atomic structure:
  |       Atom                x [A]            y [A]            z [A]
  |    1: Species O            -6.52107849       13.17743014       11.00268614
  |    2: Species O             1.63037151        4.70619481       11.00268614
  |    3: Species O             0.00008151        7.52993992       11.00268614
  |    4: Species O            -3.26049849       13.17743014       11.00268614
  |    5: Species O             6.52124151        1.88244970       11.00268614
  |    6: Species O             4.89095151        4.70619481       11.00268614
  |    7: Species O             3.26066151        7.52993992       11.00268614
  |    8: Species O             1.63037151       10.35368503       11.00268614
  |    9: Species O             0.00008151       13.17743014       11.00268614
  |   10: Species O             9.78182151        1.88244970       11.00268614
  |   11: Species O             6.52124151        7.52993992       11.00268614
  |   12: Species O             4.89095151       10.35368503       11.00268614
  |   13: Species O             3.26066151       13.17743014       11.00268614
  |   14: Species O            13.04240151        1.88244970       11.00268614
  |   15: Species O            11.41211151        4.70619481       11.00268614
  |   16: Species O             9.78182151        7.52993992       11.00268614
  |   17: Species O             8.15153151       10.35368503       11.00268614
  |   18: Species O             6.52124151       13.17743014       11.00268614
  |   19: Species Zn            4.89078849        6.58878568       11.63151129
  |   20: Species Zn            3.26049849        3.76504057       11.63151129
  |   21: Species Zn            3.26049849        9.41253079       11.63151129
  |   22: Species Zn           -3.26066151        9.41253079       11.63151129
  |   23: Species Zn            1.63020849       12.23627590       11.63151129
  |   24: Species Zn            1.63020849        6.58878568       11.63151129
  |   25: Species Zn           11.41194849        0.94129546       11.63151129
  |   26: Species Zn            1.63020849        0.94129546       11.63151129
  |   27: Species Zn            9.78165849        3.76504057       11.63151129
  |   28: Species Zn           -0.00008151        9.41253079       11.63151129
  |   29: Species Zn            8.15136849        6.58878568       11.63151129
  |   30: Species Zn           -4.89095151       12.23627590       11.63151129
  |   31: Species Zn            6.52107849        9.41253079       11.63151129
  |   32: Species Zn           -1.63037151       12.23627590       11.63151129
  |   33: Species Zn            4.89078849       12.23627590       11.63151129
  |   34: Species Zn           -1.63037151        6.58878568       11.63151129
  |   35: Species Zn           14.67252849        0.94129546       11.63151129
  |   36: Species Zn            8.15136849        0.94129546       11.63151129
  |   37: Species Zn           13.04223849        3.76504057       11.63151129
  |   38: Species Zn            4.89078849        0.94129546       11.63151129
  |   39: Species Zn           11.41194849        6.58878568       11.63151129
  |   40: Species Zn            6.52107849        3.76504057       11.63151129
  |   41: Species Zn            9.78165849        9.41253079       11.63151129
  |   42: Species Zn           -0.00008151        3.76504057       11.63151129
  |   43: Species Zn            8.15136849       12.23627590       11.63151129
  |   44: Species O             9.78165849        3.76504057       13.62497614
  |   45: Species O             1.63020849        6.58878568       13.62497614
  |   46: Species O             6.52107849        3.76504057       13.62497614
  |   47: Species O             8.15136849        6.58878568       13.62497614
  |   48: Species O            -3.26066151        9.41253079       13.62497614
  |   49: Species O             4.89078849        0.94129546       13.62497614
  |   50: Species O             6.52107849        9.41253079       13.62497614
  |   51: Species O             4.89078849        6.58878568       13.62497614
  |   52: Species O            -0.00008151        9.41253079       13.62497614
  |   53: Species O             4.89078849       12.23627590       13.62497614
  |   54: Species O            -1.63037151        6.58878568       13.62497614
  |   55: Species O             3.26049849        9.41253079       13.62497614
  |   56: Species O            14.67252849        0.94129546       13.62497614
  |   57: Species O             1.63020849        0.94129546       13.62497614
  |   58: Species O            -1.63037151       12.23627590       13.62497614
  |   59: Species O            13.04223849        3.76504057       13.62497614
  |   60: Species O             1.63020849       12.23627590       13.62497614
  |   61: Species O             3.26049849        3.76504057       13.62497614
  |   62: Species O            11.41194849        6.58878568       13.62497614
  |   63: Species O            -4.89095151       12.23627590       13.62497614
  |   64: Species O            11.41194849        0.94129546       13.62497614
  |   65: Species O             9.78165849        9.41253079       13.62497614
  |   66: Species O             8.15136849        0.94129546       13.62497614
  |   67: Species O            -0.00008151        3.76504057       13.62497614
  |   68: Species O             8.15136849       12.23627590       13.62497614
  |   69: Species Zn            4.89095151       10.35368503       14.25380129
  |   70: Species Zn            6.52124151        1.88244970       14.25380129
  |   71: Species Zn           -6.52107849       13.17743014       14.25380129
  |   72: Species Zn            0.00008151       13.17743014       14.25380129
  |   73: Species Zn            3.26066151       13.17743014       14.25380129
  |   74: Species Zn           -4.89078849       10.35368503       14.25380129
  |   75: Species Zn           -1.63020849       10.35368503       14.25380129
  |   76: Species Zn            4.89095151        4.70619481       14.25380129
  |   77: Species Zn           13.04240151        1.88244970       14.25380129
  |   78: Species Zn            9.78182151        1.88244970       14.25380129
  |   79: Species Zn            1.63037151        4.70619481       14.25380129
  |   80: Species Zn           -1.63020849        4.70619481       14.25380129
  |   81: Species Zn           11.41211151        4.70619481       14.25380129
  |   82: Species Zn            0.00008151        1.88244970       14.25380129
  |   83: Species Zn            8.15153151        4.70619481       14.25380129
  |   84: Species Zn            3.26066151        7.52993992       14.25380129
  |   85: Species Zn            9.78182151        7.52993992       14.25380129
  |   86: Species Zn           -3.26049849       13.17743014       14.25380129
  |   87: Species Zn            3.26066151        1.88244970       14.25380129
  |   88: Species Zn            6.52124151        7.52993992       14.25380129
  |   89: Species Zn            8.15153151       10.35368503       14.25380129
  |   90: Species Zn            0.00008151        7.52993992       14.25380129
  |   91: Species Zn            1.63037151       10.35368503       14.25380129
  |   92: Species Zn           -3.26049849        7.52993992       14.25380129
  |   93: Species Zn            6.52124151       13.17743014       14.25380129
  |   94: Species O             3.26066151        7.52993992       16.24726614
  |   95: Species O             1.63037151        4.70619481       16.24726614
  |   96: Species O            -4.89078849       10.35368503       16.24726614
  |   97: Species O             6.52124151        1.88244970       16.24726614
  |   98: Species O            13.04240151        1.88244970       16.24726614
  |   99: Species O             8.15153151        4.70619481       16.24726614
  |  100: Species O            -1.63020849       10.35368503       16.24726614
  |  101: Species O             1.63037151       10.35368503       16.24726614
  |  102: Species O             3.26066151        1.88244970       16.24726614
  |  103: Species O            11.41211151        4.70619481       16.24726614
  |  104: Species O            -6.52107849       13.17743014       16.24726614
  |  105: Species O             6.52124151        7.52993992       16.24726614
  |  106: Species O            -1.63020849        4.70619481       16.24726614
  |  107: Species O             4.89095151        4.70619481       16.24726614
  |  108: Species O             9.78182151        7.52993992       16.24726614
  |  109: Species O             0.00008151       13.17743014       16.24726614
  |  110: Species O             0.00008151        7.52993992       16.24726614
  |  111: Species O             4.89095151       10.35368503       16.24726614
  |  112: Species O            -3.26049849       13.17743014       16.24726614
  |  113: Species O             8.15153151       10.35368503       16.24726614
  |  114: Species O            -3.26049849        7.52993992       16.24726614
  |  115: Species O             0.00008151        1.88244970       16.24726614
  |  116: Species O             9.78182151        1.88244970       16.24726614
  |  117: Species O             3.26066151       13.17743014       16.24726614
  |  118: Species O             6.52124151       13.17743014       16.24726614
  |  119: Species Zn           14.67252849        0.94129546       16.87609129
  |  120: Species Zn            1.63020849        0.94129546       16.87609129
  |  121: Species Zn            1.63020849       12.23627590       16.87609129
  |  122: Species Zn            8.15136849        6.58878568       16.87609129
  |  123: Species Zn           -0.00008151        9.41253079       16.87609129
  |  124: Species Zn           -3.26066151        9.41253079       16.87609129
  |  125: Species Zn           13.04223849        3.76504057       16.87609129
  |  126: Species Zn            4.89078849        6.58878568       16.87609129
  |  127: Species Zn            8.15136849        0.94129546       16.87609129
  |  128: Species Zn           -1.63037151        6.58878568       16.87609129
  |  129: Species Zn            6.52107849        9.41253079       16.87609129
  |  130: Species Zn           11.41194849        0.94129546       16.87609129
  |  131: Species Zn           11.41194849        6.58878568       16.87609129
  |  132: Species Zn            1.63020849        6.58878568       16.87609129
  |  133: Species Zn           -4.89095151       12.23627590       16.87609129
  |  134: Species Zn            3.26049849        3.76504057       16.87609129
  |  135: Species Zn            3.26049849        9.41253079       16.87609129
  |  136: Species Zn            4.89078849       12.23627590       16.87609129
  |  137: Species Zn            9.78165849        9.41253079       16.87609129
  |  138: Species Zn           -1.63037151       12.23627590       16.87609129
  |  139: Species Zn            9.78165849        3.76504057       16.87609129
  |  140: Species Zn            6.52107849        3.76504057       16.87609129
  |  141: Species Zn            4.89078849        0.94129546       16.87609129
  |  142: Species Zn           -0.00008151        3.76504057       16.87609129
  |  143: Species Zn            8.15136849       12.23627590       16.87609129
  |  144: Species O            11.41194849        0.94129546       18.86955614
  |  145: Species O             6.52107849        3.76504057       18.86955614
  |  146: Species O             3.26049849        9.41253079       18.86955614
  |  147: Species O            13.04223849        3.76504057       18.86955614
  |  148: Species O             6.52107849        9.41253079       18.86955614
  |  149: Species O            -0.00008151        9.41253079       18.86955614
  |  150: Species O             4.89078849        0.94129546       18.86955614
  |  151: Species O             1.63020849        6.58878568       18.86955614
  |  152: Species O             3.26049849        3.76504057       18.86955614
  |  153: Species O             9.78165849        3.76504057       18.86955614
  |  154: Species O            11.41194849        6.58878568       18.86955614
  |  155: Species O             8.15136849        0.94129546       18.86955614
  |  156: Species O             4.89078849       12.23627590       18.86955614
  |  157: Species O            -3.26066151        9.41253079       18.86955614
  |  158: Species O             1.63020849       12.23627590       18.86955614
  |  159: Species O             4.89078849        6.58878568       18.86955614
  |  160: Species O             1.63020849        0.94129546       18.86955614
  |  161: Species O             9.78165849        9.41253079       18.86955614
  |  162: Species O            -0.00008151        3.76504057       18.86955614
  |  163: Species O             8.15136849        6.58878568       18.86955614
  |  164: Species O            14.67252849        0.94129546       18.86955614
  |  165: Species O            -1.63037151       12.23627590       18.86955614
  |  166: Species O            -4.89095151       12.23627590       18.86955614
  |  167: Species O            -1.63037151        6.58878568       18.86955614
  |  168: Species O             8.15136849       12.23627590       18.86955614
  |  169: Species Zn           11.41211151        4.70619481       19.49838129
  |  170: Species Zn            8.15153151        4.70619481       19.49838129
  |  171: Species Zn            0.00008151       13.17743014       19.49838129
  |  172: Species Zn           -1.63020849       10.35368503       19.49838129
  |  173: Species Zn            0.00008151        7.52993992       19.49838129
  |  174: Species Zn           -1.63020849        4.70619481       19.49838129
  |  175: Species Zn            3.26066151       13.17743014       19.49838129
  |  176: Species Zn            4.89095151        4.70619481       19.49838129
  |  177: Species Zn            9.78182151        7.52993992       19.49838129
  |  178: Species Zn           -6.52107849       13.17743014       19.49838129
  |  179: Species Zn           -4.89078849       10.35368503       19.49838129
  |  180: Species Zn            6.52124151        7.52993992       19.49838129
  |  181: Species Zn            1.63037151       10.35368503       19.49838129
  |  182: Species Zn            9.78182151        1.88244970       19.49838129
  |  183: Species Zn            0.00008151        1.88244970       19.49838129
  |  184: Species Zn           13.04240151        1.88244970       19.49838129
  |  185: Species Zn            8.15153151       10.35368503       19.49838129
  |  186: Species Zn            6.52124151        1.88244970       19.49838129
  |  187: Species Zn            3.26066151        1.88244970       19.49838129
  |  188: Species Zn           -3.26049849        7.52993992       19.49838129
  |  189: Species Zn           -3.26049849       13.17743014       19.49838129
  |  190: Species Zn            4.89095151       10.35368503       19.49838129
  |  191: Species Zn            3.26066151        7.52993992       19.49838129
  |  192: Species Zn            1.63037151        4.70619481       19.49838129
  |  193: Species Zn            6.52124151       13.17743014       19.49838129
  |  194: Species O            -1.63020849       10.35368503       21.49184614
  |  195: Species O             3.26066151       13.17743014       21.49184614
  |  196: Species O             9.78182151        1.88244970       21.49184614
  |  197: Species O             6.52124151        7.52993992       21.49184614
  |  198: Species O             0.00008151        1.88244970       21.49184614
  |  199: Species O            -1.63020849        4.70619481       21.49184614
  |  200: Species O             9.78182151        7.52993992       21.49184614
  |  201: Species O             3.26066151        7.52993992       21.49184614
  |  202: Species O             3.26066151        1.88244970       21.49184614
  |  203: Species O            -4.89078849       10.35368503       21.49184614
  |  204: Species O            -6.52107849       13.17743014       21.49184614
  |  205: Species O            13.04240151        1.88244970       21.49184614
  |  206: Species O             0.00008151       13.17743014       21.49184614
  |  207: Species O             4.89095151        4.70619481       21.49184614
  |  208: Species O             4.89095151       10.35368503       21.49184614
  |  209: Species O             8.15153151       10.35368503       21.49184614
  |  210: Species O             8.15153151        4.70619481       21.49184614
  |  211: Species O             1.63037151        4.70619481       21.49184614
  |  212: Species O            -3.26049849        7.52993992       21.49184614
  |  213: Species O             6.52124151        1.88244970       21.49184614
  |  214: Species O             0.00008151        7.52993992       21.49184614
  |  215: Species O            11.41211151        4.70619481       21.49184614
  |  216: Species O             1.63037151       10.35368503       21.49184614
  |  217: Species O            -3.26049849       13.17743014       21.49184614
  |  218: Species O             6.52124151       13.17743014       21.49184614
  |  219: Species Zn           11.41194849        6.58878568       22.12067129
  |  220: Species Zn           -1.63037151        6.58878568       22.12067129
  |  221: Species Zn           14.67252849        0.94129546       22.12067129
  |  222: Species Zn            3.26049849        9.41253079       22.12067129
  |  223: Species Zn            3.26049849        3.76504057       22.12067129
  |  224: Species Zn           -3.26066151        9.41253079       22.12067129
  |  225: Species Zn           -0.00008151        3.76504057       22.12067129
  |  226: Species Zn            4.89078849        6.58878568       22.12067129
  |  227: Species Zn            9.78165849        9.41253079       22.12067129
  |  228: Species Zn           11.41194849        0.94129546       22.12067129
  |  229: Species Zn            4.89078849        0.94129546       22.12067129
  |  230: Species Zn           13.04223849        3.76504057       22.12067129
  |  231: Species Zn            8.15136849        6.58878568       22.12067129
  |  232: Species Zn            4.89078849       12.23627590       22.12067129
  |  233: Species Zn            6.52107849        3.76504057       22.12067129
  |  234: Species Zn           -0.00008151        9.41253079       22.12067129
  |  235: Species Zn            8.15136849        0.94129546       22.12067129
  |  236: Species Zn            8.15136849       12.23627590       22.12067129
  |  237: Species Pd            2.94600000        5.53595373        7.10222871
  |  238: Species Pd            2.94600000        5.53595373        8.60222871
  |  239: Species Pd            4.89100000        4.41300745        8.60222871
  |  240: Species Pd            2.94600000        7.78184627        8.60222871
  |  241: Species Pd            6.83600000        5.53595373        7.10222871
  |  242: Species Pd            6.83600000        5.53595373        8.60222871
  |  243: Species Pd            4.89100000        6.65890000        7.10222871
  |  244: Species Pd            4.89100000        8.90479255        7.10222871
  |  245: Species Pd            4.89100000        8.90479255        8.60222871
  |  246: Species Pd            6.83600000        7.78184627        8.60222871

  Lattice parameters for 3D lattice (in Angstroms) :    16.302900   16.302900   29.222900
  Angle(s) between unit vectors (in degrees)       :    90.000000   90.000000  120.000000


  Quantities derived from the lattice vectors (in Angstrom^-1):
  | Reciprocal lattice vector 1:  0.385403  0.222512  0.000000
  | Reciprocal lattice vector 2: -0.000000  0.445025  0.000000
  | Reciprocal lattice vector 3:  0.000000  0.000000  0.215009
  | Unit cell volume                               :   0.672642E+04  Angstrom^3

  Fractional coordinates:
                         L1                L2                L3
       atom_frac         0.06667000        0.93333000        0.37650904  O
       atom_frac         0.26667000        0.33333000        0.37650904  O
       atom_frac         0.26667000        0.53333000        0.37650904  O
       atom_frac         0.26667000        0.93333000        0.37650904  O
       atom_frac         0.46667000        0.13333000        0.37650904  O
       atom_frac         0.46667000        0.33333000        0.37650904  O
       atom_frac         0.46667000        0.53333000        0.37650904  O
       atom_frac         0.46667000        0.73333000        0.37650904  O
       atom_frac         0.46667000        0.93333000        0.37650904  O
       atom_frac         0.66667000        0.13333000        0.37650904  O
       atom_frac         0.66667000        0.53333000        0.37650904  O
       atom_frac         0.66667000        0.73333000        0.37650904  O
       atom_frac         0.66667000        0.93333000        0.37650904  O
       atom_frac         0.86667000        0.13333000        0.37650904  O
       atom_frac         0.86667000        0.33333000        0.37650904  O
       atom_frac         0.86667000        0.53333000        0.37650904  O
       atom_frac         0.86667000        0.73333000        0.37650904  O
       atom_frac         0.86667000        0.93333000        0.37650904  O
       atom_frac         0.53333000        0.46667000        0.39802728  Zn
       atom_frac         0.33333000        0.26667000        0.39802728  Zn
       atom_frac         0.53333000        0.66667000        0.39802728  Zn
       atom_frac         0.13333000        0.66667000        0.39802728  Zn
       atom_frac         0.53333000        0.86667000        0.39802728  Zn
       atom_frac         0.33333000        0.46667000        0.39802728  Zn
       atom_frac         0.73333000        0.06667000        0.39802728  Zn
       atom_frac         0.13333000        0.06667000        0.39802728  Zn
       atom_frac         0.73333000        0.26667000        0.39802728  Zn
       atom_frac         0.33333000        0.66667000        0.39802728  Zn
       atom_frac         0.73333000        0.46667000        0.39802728  Zn
       atom_frac         0.13333000        0.86667000        0.39802728  Zn
       atom_frac         0.73333000        0.66667000        0.39802728  Zn
       atom_frac         0.33333000        0.86667000        0.39802728  Zn
       atom_frac         0.73333000        0.86667000        0.39802728  Zn
       atom_frac         0.13333000        0.46667000        0.39802728  Zn
       atom_frac         0.93333000        0.06667000        0.39802728  Zn
       atom_frac         0.53333000        0.06667000        0.39802728  Zn
       atom_frac         0.93333000        0.26667000        0.39802728  Zn
       atom_frac         0.33333000        0.06667000        0.39802728  Zn
       atom_frac         0.93333000        0.46667000        0.39802728  Zn
       atom_frac         0.53333000        0.26667000        0.39802728  Zn
       atom_frac         0.93333000        0.66667000        0.39802728  Zn
       atom_frac         0.13333000        0.26667000        0.39802728  Zn
       atom_frac         0.93333000        0.86667000        0.39802728  Zn
       atom_frac         0.73333000        0.26667000        0.46624312  O
       atom_frac         0.33333000        0.46667000        0.46624312  O
       atom_frac         0.53333000        0.26667000        0.46624312  O
       atom_frac         0.73333000        0.46667000        0.46624312  O
       atom_frac         0.13333000        0.66667000        0.46624312  O
       atom_frac         0.33333000        0.06667000        0.46624312  O
       atom_frac         0.73333000        0.66667000        0.46624312  O
       atom_frac         0.53333000        0.46667000        0.46624312  O
       atom_frac         0.33333000        0.66667000        0.46624312  O
       atom_frac         0.73333000        0.86667000        0.46624312  O
       atom_frac         0.13333000        0.46667000        0.46624312  O
       atom_frac         0.53333000        0.66667000        0.46624312  O
       atom_frac         0.93333000        0.06667000        0.46624312  O
       atom_frac         0.13333000        0.06667000        0.46624312  O
       atom_frac         0.33333000        0.86667000        0.46624312  O
       atom_frac         0.93333000        0.26667000        0.46624312  O
       atom_frac         0.53333000        0.86667000        0.46624312  O
       atom_frac         0.33333000        0.26667000        0.46624312  O
       atom_frac         0.93333000        0.46667000        0.46624312  O
       atom_frac         0.13333000        0.86667000        0.46624312  O
       atom_frac         0.73333000        0.06667000        0.46624312  O
       atom_frac         0.93333000        0.66667000        0.46624312  O
       atom_frac         0.53333000        0.06667000        0.46624312  O
       atom_frac         0.13333000        0.26667000        0.46624312  O
       atom_frac         0.93333000        0.86667000        0.46624312  O
       atom_frac         0.66667000        0.73333000        0.48776135  Zn
       atom_frac         0.46667000        0.13333000        0.48776135  Zn
       atom_frac         0.06667000        0.93333000        0.48776135  Zn
       atom_frac         0.46667000        0.93333000        0.48776135  Zn
       atom_frac         0.66667000        0.93333000        0.48776135  Zn
       atom_frac         0.06667000        0.73333000        0.48776135  Zn
       atom_frac         0.26667000        0.73333000        0.48776135  Zn
       atom_frac         0.46667000        0.33333000        0.48776135  Zn
       atom_frac         0.86667000        0.13333000        0.48776135  Zn
       atom_frac         0.66667000        0.13333000        0.48776135  Zn
       atom_frac         0.26667000        0.33333000        0.48776135  Zn
       atom_frac         0.06667000        0.33333000        0.48776135  Zn
       atom_frac         0.86667000        0.33333000        0.48776135  Zn
       atom_frac         0.06667000        0.13333000        0.48776135  Zn
       atom_frac         0.66667000        0.33333000        0.48776135  Zn
       atom_frac         0.46667000        0.53333000        0.48776135  Zn
       atom_frac         0.86667000        0.53333000        0.48776135  Zn
       atom_frac         0.26667000        0.93333000        0.48776135  Zn
       atom_frac         0.26667000        0.13333000        0.48776135  Zn
       atom_frac         0.66667000        0.53333000        0.48776135  Zn
       atom_frac         0.86667000        0.73333000        0.48776135  Zn
       atom_frac         0.26667000        0.53333000        0.48776135  Zn
       atom_frac         0.46667000        0.73333000        0.48776135  Zn
       atom_frac         0.06667000        0.53333000        0.48776135  Zn
       atom_frac         0.86667000        0.93333000        0.48776135  Zn
       atom_frac         0.46667000        0.53333000        0.55597720  O
       atom_frac         0.26667000        0.33333000        0.55597720  O
       atom_frac         0.06667000        0.73333000        0.55597720  O
       atom_frac         0.46667000        0.13333000        0.55597720  O
       atom_frac         0.86667000        0.13333000        0.55597720  O
       atom_frac         0.66667000        0.33333000        0.55597720  O
       atom_frac         0.26667000        0.73333000        0.55597720  O
       atom_frac         0.46667000        0.73333000        0.55597720  O
       atom_frac         0.26667000        0.13333000        0.55597720  O
       atom_frac         0.86667000        0.33333000        0.55597720  O
       atom_frac         0.06667000        0.93333000        0.55597720  O
       atom_frac         0.66667000        0.53333000        0.55597720  O
       atom_frac         0.06667000        0.33333000        0.55597720  O
       atom_frac         0.46667000        0.33333000        0.55597720  O
       atom_frac         0.86667000        0.53333000        0.55597720  O
       atom_frac         0.46667000        0.93333000        0.55597720  O
       atom_frac         0.26667000        0.53333000        0.55597720  O
       atom_frac         0.66667000        0.73333000        0.55597720  O
       atom_frac         0.26667000        0.93333000        0.55597720  O
       atom_frac         0.86667000        0.73333000        0.55597720  O
       atom_frac         0.06667000        0.53333000        0.55597720  O
       atom_frac         0.06667000        0.13333000        0.55597720  O
       atom_frac         0.66667000        0.13333000        0.55597720  O
       atom_frac         0.66667000        0.93333000        0.55597720  O
       atom_frac         0.86667000        0.93333000        0.55597720  O
       atom_frac         0.93333000        0.06667000        0.57749543  Zn
       atom_frac         0.13333000        0.06667000        0.57749543  Zn
       atom_frac         0.53333000        0.86667000        0.57749543  Zn
       atom_frac         0.73333000        0.46667000        0.57749543  Zn
       atom_frac         0.33333000        0.66667000        0.57749543  Zn
       atom_frac         0.13333000        0.66667000        0.57749543  Zn
       atom_frac         0.93333000        0.26667000        0.57749543  Zn
       atom_frac         0.53333000        0.46667000        0.57749543  Zn
       atom_frac         0.53333000        0.06667000        0.57749543  Zn
       atom_frac         0.13333000        0.46667000        0.57749543  Zn
       atom_frac         0.73333000        0.66667000        0.57749543  Zn
       atom_frac         0.73333000        0.06667000        0.57749543  Zn
       atom_frac         0.93333000        0.46667000        0.57749543  Zn
       atom_frac         0.33333000        0.46667000        0.57749543  Zn
       atom_frac         0.13333000        0.86667000        0.57749543  Zn
       atom_frac         0.33333000        0.26667000        0.57749543  Zn
       atom_frac         0.53333000        0.66667000        0.57749543  Zn
       atom_frac         0.73333000        0.86667000        0.57749543  Zn
       atom_frac         0.93333000        0.66667000        0.57749543  Zn
       atom_frac         0.33333000        0.86667000        0.57749543  Zn
       atom_frac         0.73333000        0.26667000        0.57749543  Zn
       atom_frac         0.53333000        0.26667000        0.57749543  Zn
       atom_frac         0.33333000        0.06667000        0.57749543  Zn
       atom_frac         0.13333000        0.26667000        0.57749543  Zn
       atom_frac         0.93333000        0.86667000        0.57749543  Zn
       atom_frac         0.73333000        0.06667000        0.64571128  O
       atom_frac         0.53333000        0.26667000        0.64571128  O
       atom_frac         0.53333000        0.66667000        0.64571128  O
       atom_frac         0.93333000        0.26667000        0.64571128  O
       atom_frac         0.73333000        0.66667000        0.64571128  O
       atom_frac         0.33333000        0.66667000        0.64571128  O
       atom_frac         0.33333000        0.06667000        0.64571128  O
       atom_frac         0.33333000        0.46667000        0.64571128  O
       atom_frac         0.33333000        0.26667000        0.64571128  O
       atom_frac         0.73333000        0.26667000        0.64571128  O
       atom_frac         0.93333000        0.46667000        0.64571128  O
       atom_frac         0.53333000        0.06667000        0.64571128  O
       atom_frac         0.73333000        0.86667000        0.64571128  O
       atom_frac         0.13333000        0.66667000        0.64571128  O
       atom_frac         0.53333000        0.86667000        0.64571128  O
       atom_frac         0.53333000        0.46667000        0.64571128  O
       atom_frac         0.13333000        0.06667000        0.64571128  O
       atom_frac         0.93333000        0.66667000        0.64571128  O
       atom_frac         0.13333000        0.26667000        0.64571128  O
       atom_frac         0.73333000        0.46667000        0.64571128  O
       atom_frac         0.93333000        0.06667000        0.64571128  O
       atom_frac         0.33333000        0.86667000        0.64571128  O
       atom_frac         0.13333000        0.86667000        0.64571128  O
       atom_frac         0.13333000        0.46667000        0.64571128  O
       atom_frac         0.93333000        0.86667000        0.64571128  O
       atom_frac         0.86667000        0.33333000        0.66722951  Zn
       atom_frac         0.66667000        0.33333000        0.66722951  Zn
       atom_frac         0.46667000        0.93333000        0.66722951  Zn
       atom_frac         0.26667000        0.73333000        0.66722951  Zn
       atom_frac         0.26667000        0.53333000        0.66722951  Zn
       atom_frac         0.06667000        0.33333000        0.66722951  Zn
       atom_frac         0.66667000        0.93333000        0.66722951  Zn
       atom_frac         0.46667000        0.33333000        0.66722951  Zn
       atom_frac         0.86667000        0.53333000        0.66722951  Zn
       atom_frac         0.06667000        0.93333000        0.66722951  Zn
       atom_frac         0.06667000        0.73333000        0.66722951  Zn
       atom_frac         0.66667000        0.53333000        0.66722951  Zn
       atom_frac         0.46667000        0.73333000        0.66722951  Zn
       atom_frac         0.66667000        0.13333000        0.66722951  Zn
       atom_frac         0.06667000        0.13333000        0.66722951  Zn
       atom_frac         0.86667000        0.13333000        0.66722951  Zn
       atom_frac         0.86667000        0.73333000        0.66722951  Zn
       atom_frac         0.46667000        0.13333000        0.66722951  Zn
       atom_frac         0.26667000        0.13333000        0.66722951  Zn
       atom_frac         0.06667000        0.53333000        0.66722951  Zn
       atom_frac         0.26667000        0.93333000        0.66722951  Zn
       atom_frac         0.66667000        0.73333000        0.66722951  Zn
       atom_frac         0.46667000        0.53333000        0.66722951  Zn
       atom_frac         0.26667000        0.33333000        0.66722951  Zn
       atom_frac         0.86667000        0.93333000        0.66722951  Zn
       atom_frac         0.26667000        0.73333000        0.73544536  O
       atom_frac         0.66667000        0.93333000        0.73544536  O
       atom_frac         0.66667000        0.13333000        0.73544536  O
       atom_frac         0.66667000        0.53333000        0.73544536  O
       atom_frac         0.06667000        0.13333000        0.73544536  O
       atom_frac         0.06667000        0.33333000        0.73544536  O
       atom_frac         0.86667000        0.53333000        0.73544536  O
       atom_frac         0.46667000        0.53333000        0.73544536  O
       atom_frac         0.26667000        0.13333000        0.73544536  O
       atom_frac         0.06667000        0.73333000        0.73544536  O
       atom_frac         0.06667000        0.93333000        0.73544536  O
       atom_frac         0.86667000        0.13333000        0.73544536  O
       atom_frac         0.46667000        0.93333000        0.73544536  O
       atom_frac         0.46667000        0.33333000        0.73544536  O
       atom_frac         0.66667000        0.73333000        0.73544536  O
       atom_frac         0.86667000        0.73333000        0.73544536  O
       atom_frac         0.66667000        0.33333000        0.73544536  O
       atom_frac         0.26667000        0.33333000        0.73544536  O
       atom_frac         0.06667000        0.53333000        0.73544536  O
       atom_frac         0.46667000        0.13333000        0.73544536  O
       atom_frac         0.26667000        0.53333000        0.73544536  O
       atom_frac         0.86667000        0.33333000        0.73544536  O
       atom_frac         0.46667000        0.73333000        0.73544536  O
       atom_frac         0.26667000        0.93333000        0.73544536  O
       atom_frac         0.86667000        0.93333000        0.73544536  O
       atom_frac         0.93333000        0.46667000        0.75696359  Zn
[...]
   3251       0.00000           0.612541           16.66809
   3252       0.00000           0.613156           16.68481
   3253       0.00000           0.613933           16.70595
   3254       0.00000           0.614200           16.71323
   3255       0.00000           0.614734           16.72778
   3256       0.00000           0.615593           16.75114
   3257       0.00000           0.616145           16.76615
   3258       0.00000           0.616743           16.78243
   3259       0.00000           0.616958           16.78827
   3260       0.00000           0.617484           16.80260
   3261       0.00000           0.619095           16.84643
   3262       0.00000           0.619398           16.85469
   3263       0.00000           0.619540           16.85855
   3264       0.00000           0.619850           16.86697
   3265       0.00000           0.620671           16.88933
   3266       0.00000           0.620943           16.89672
   3267       0.00000           0.621863           16.92176
   3268       0.00000           0.622491           16.93884
   3269       0.00000           0.623182           16.95765
   3270       0.00000           0.623750           16.97309
   3271       0.00000           0.623836           16.97544
   3272       0.00000           0.624491           16.99327
   3273       0.00000           0.625298           17.01523
   3274       0.00000           0.625503           17.02079
   3275       0.00000           0.626202           17.03983
   3276       0.00000           0.626544           17.04914
   3277       0.00000           0.626804           17.05621
   3278       0.00000           0.627453           17.07387
   3279       0.00000           0.627890           17.08577
   3280       0.00000           0.629255           17.12290
   3281       0.00000           0.630147           17.14716
   3282       0.00000           0.630389           17.15375
   3283       0.00000           0.631100           17.17311
   3284       0.00000           0.632192           17.20283
   3285       0.00000           0.632886           17.22170
   3286       0.00000           0.633554           17.23989
   3287       0.00000           0.635274           17.28669
   3288       0.00000           0.635473           17.29210
   3289       0.00000           0.635724           17.29893
   3290       0.00000           0.636341           17.31571
   3291       0.00000           0.637115           17.33679
   3292       0.00000           0.638180           17.36577
   3293       0.00000           0.638641           17.37830
   3294       0.00000           0.640607           17.43179
   3295       0.00000           0.640760           17.43596
   3296       0.00000           0.641021           17.44306
   3297       0.00000           0.642060           17.47135
   3298       0.00000           0.643709           17.51622
   3299       0.00000           0.644190           17.52930
   3300       0.00000           0.645411           17.56254
   3301       0.00000           0.645971           17.57776
   3302       0.00000           0.647293           17.61374
   3303       0.00000           0.648335           17.64210
   3304       0.00000           0.648730           17.65284
   3305       0.00000           0.649523           17.67441
   3306       0.00000           0.650093           17.68992
   3307       0.00000           0.651035           17.71555
   3308       0.00000           0.651973           17.74110
   3309       0.00000           0.653269           17.77634
   3310       0.00000           0.653561           17.78430
   3311       0.00000           0.654863           17.81972
   3312       0.00000           0.655732           17.84336
   3313       0.00000           0.656318           17.85933
   3314       0.00000           0.656719           17.87022
   3315       0.00000           0.657398           17.88871
   3316       0.00000           0.659291           17.94023
   3317       0.00000           0.659833           17.95498
   3318       0.00000           0.660205           17.96510
   3319       0.00000           0.660911           17.98429
   3320       0.00000           0.661500           18.00033
   3321       0.00000           0.661747           18.00707
   3322       0.00000           0.662922           18.03903
   3323       0.00000           0.663720           18.06073
   3324       0.00000           0.663918           18.06612
   3325       0.00000           0.664439           18.08031
   3326       0.00000           0.664664           18.08642
   3327       0.00000           0.665557           18.11074
   3328       0.00000           0.666938           18.14830
   3329       0.00000           0.667865           18.17353
   3330       0.00000           0.668126           18.18062
   3331       0.00000           0.668578           18.19294
   3332       0.00000           0.669361           18.21424
   3333       0.00000           0.670312           18.24012
   3334       0.00000           0.671645           18.27639
   3335       0.00000           0.673134           18.31692
   3336       0.00000           0.673257           18.32024
   3337       0.00000           0.674182           18.34542
   3338       0.00000           0.674760           18.36115
   3339       0.00000           0.675441           18.37969
   3340       0.00000           0.676374           18.40506
   3341       0.00000           0.677545           18.43695
   3342       0.00000           0.677562           18.43740
   3343       0.00000           0.678899           18.47378
   3344       0.00000           0.679191           18.48172
   3345       0.00000           0.680118           18.50694
   3346       0.00000           0.680472           18.51660
   3347       0.00000           0.681465           18.54360
   3348       0.00000           0.682017           18.55862
   3349       0.00000           0.682188           18.56327
   3350       0.00000           0.683759           18.60602
   3351       0.00000           0.684334           18.62168
   3352       0.00000           0.684795           18.63423
   3353       0.00000           0.684995           18.63966
   3354       0.00000           0.685382           18.65020
   3355       0.00000           0.686157           18.67129
   3356       0.00000           0.687694           18.71311
   3357       0.00000           0.688494           18.73486
   3358       0.00000           0.689148           18.75266
   3359       0.00000           0.690019           18.77637
   3360       0.00000           0.690361           18.78568
   3361       0.00000           0.691304           18.81135
   3362       0.00000           0.691703           18.82219
   3363       0.00000           0.691881           18.82703
   3364       0.00000           0.692701           18.84934
   3365       0.00000           0.694285           18.89244
   3366       0.00000           0.695007           18.91211
   3367       0.00000           0.695535           18.92648
   3368       0.00000           0.695982           18.93863
   3369       0.00000           0.696112           18.94217
   3370       0.00000           0.696666           18.95725
   3371       0.00000           0.696870           18.96279
   3372       0.00000           0.697804           18.98821
   3373       0.00000           0.698063           18.99527
   3374       0.00000           0.698385           19.00401
   3375       0.00000           0.699209           19.02643
   3376       0.00000           0.699420           19.03220
   3377       0.00000           0.699705           19.03995
   3378       0.00000           0.700717           19.06748
   3379       0.00000           0.701195           19.08049
   3380       0.00000           0.701476           19.08814
   3381       0.00000           0.701950           19.10103
   3382       0.00000           0.702972           19.12885
   3383       0.00000           0.703252           19.13647
   3384       0.00000           0.704084           19.15911
   3385       0.00000           0.704393           19.16751
   3386       0.00000           0.704781           19.17806
   3387       0.00000           0.705619           19.20088
   3388       0.00000           0.706140           19.21506
   3389       0.00000           0.706519           19.22535
   3390       0.00000           0.706561           19.22649
   3391       0.00000           0.707119           19.24169
   3392       0.00000           0.707597           19.25468
   3393       0.00000           0.708132           19.26924
   3394       0.00000           0.708607           19.28218
   3395       0.00000           0.708994           19.29272
   3396       0.00000           0.709620           19.30973
   3397       0.00000           0.709841           19.31576
   3398       0.00000           0.711205           19.35286
   3399       0.00000           0.711305           19.35559
   3400       0.00000           0.712294           19.38251
   3401       0.00000           0.712890           19.39873
   3402       0.00000           0.713643           19.41920
   3403       0.00000           0.714473           19.44179
   3404       0.00000           0.714658           19.44682
   3405       0.00000           0.716011           19.48365
   3406       0.00000           0.716854           19.50660
   3407       0.00000           0.717188           19.51568
   3408       0.00000           0.718557           19.55292
   3409       0.00000           0.719417           19.57634
   3410       0.00000           0.719589           19.58100
   3411       0.00000           0.720093           19.59471
   3412       0.00000           0.720985           19.61901
   3413       0.00000           0.721612           19.63605
   3414       0.00000           0.722933           19.67202
   3415       0.00000           0.723561           19.68909
   3416       0.00000           0.723821           19.69618
   3417       0.00000           0.724284           19.70876
   3418       0.00000           0.724837           19.72381
   3419       0.00000           0.725928           19.75351
   3420       0.00000           0.726708           19.77473
   3421       0.00000           0.728046           19.81113
   3422       0.00000           0.728201           19.81536
   3423       0.00000           0.729478           19.85011
   3424       0.00000           0.730613           19.88098
   3425       0.00000           0.732327           19.92763
   3426       0.00000           0.732996           19.94582
   3427       0.00000           0.733796           19.96760
   3428       0.00000           0.734972           19.99959
   3429       0.00000           0.735706           20.01957
   3430       0.00000           0.736052           20.02899
   3431       0.00000           0.737269           20.06210
   3432       0.00000           0.738481           20.09508
   3433       0.00000           0.739952           20.13512
   3434       0.00000           0.740105           20.13929
   3435       0.00000           0.741594           20.17979
   3436       0.00000           0.743530           20.23247
   3437       0.00000           0.744286           20.25306
   3438       0.00000           0.745573           20.28808
   3439       0.00000           0.746227           20.30587
   3440       0.00000           0.746764           20.32048
   3441       0.00000           0.748172           20.35880
   3442       0.00000           0.749615           20.39806
   3443       0.00000           0.750379           20.41884
   3444       0.00000           0.751397           20.44656
   3445       0.00000           0.754296           20.52544
   3446       0.00000           0.755777           20.56574
   3447       0.00000           0.756185           20.57685
   3448       0.00000           0.757566           20.61441
   3449       0.00000           0.758096           20.62884
   3450       0.00000           0.758869           20.64987
   3451       0.00000           0.759661           20.67142
   3452       0.00000           0.760687           20.69933
   3453       0.00000           0.761669           20.72606
   3454       0.00000           0.762721           20.75469
   3455       0.00000           0.764172           20.79418
   3456       0.00000           0.765485           20.82989
   3457       0.00000           0.766049           20.84527
   3458       0.00000           0.766278           20.85147
   3459       0.00000           0.766936           20.86939
   3460       0.00000           0.768807           20.92031
   3461       0.00000           0.769512           20.93950
   3462       0.00000           0.770240           20.95931
   3463       0.00000           0.770387           20.96329
   3464       0.00000           0.771407           20.99105
   3465       0.00000           0.771838           21.00278
   3466       0.00000           0.773174           21.03913
   3467       0.00000           0.773643           21.05190
   3468       0.00000           0.774367           21.07159
   3469       0.00000           0.774934           21.08703
   3470       0.00000           0.776240           21.12256
   3471       0.00000           0.776733           21.13598
   3472       0.00000           0.777363           21.15311
   3473       0.00000           0.778697           21.18943
   3474       0.00000           0.778744           21.19069
   3475       0.00000           0.779285           21.20541
   3476       0.00000           0.780215           21.23074
   3477       0.00000           0.780982           21.25160
   3478       0.00000           0.781764           21.27288
   3479       0.00000           0.781967           21.27840
   3480       0.00000           0.783017           21.30698
   3481       0.00000           0.784396           21.34451
   3482       0.00000           0.785324           21.36975
   3483       0.00000           0.785960           21.38706
   3484       0.00000           0.786834           21.41083
   3485       0.00000           0.787222           21.42141
   3486       0.00000           0.788260           21.44964
   3487       0.00000           0.789154           21.47397
   3488       0.00000           0.789692           21.48862
   3489       0.00000           0.791238           21.53068
   3490       0.00000           0.791743           21.54442
   3491       0.00000           0.792661           21.56941
   3492       0.00000           0.794012           21.60617
   3493       0.00000           0.794114           21.60894
   3494       0.00000           0.794535           21.62040
   3495       0.00000           0.794888           21.63000
   3496       0.00000           0.796112           21.66331
   3497       0.00000           0.797348           21.69694
   3498       0.00000           0.798043           21.71587
   3499       0.00000           0.798946           21.74042
   3500       0.00000           0.799442           21.75392
   3501       0.00000           0.799576           21.75758
   3502       0.00000           0.801429           21.80799
   3503       0.00000           0.801707           21.81557
   3504       0.00000           0.802260           21.83060
   3505       0.00000           0.803090           21.85319
   3506       0.00000           0.804141           21.88180
   3507       0.00000           0.805357           21.91489
   3508       0.00000           0.805526           21.91947
   3509       0.00000           0.805954           21.93113
   3510       0.00000           0.806683           21.95095
   3511       0.00000           0.808181           21.99171
   3512       0.00000           0.808922           22.01188
   3513       0.00000           0.809344           22.02337
   3514       0.00000           0.809937           22.03951
   3515       0.00000           0.810089           22.04365
   3516       0.00000           0.810566           22.05663
   3517       0.00000           0.811122           22.07175
   3518       0.00000           0.812128           22.09914
   3519       0.00000           0.812942           22.12129
   3520       0.00000           0.813265           22.13007
   3521       0.00000           0.814356           22.15977
   3522       0.00000           0.815248           22.18403
   3523       0.00000           0.815675           22.19566
   3524       0.00000           0.816113           22.20756
   3525       0.00000           0.817425           22.24327
   3526       0.00000           0.818137           22.26265
   3527       0.00000           0.818706           22.27813
   3528       0.00000           0.819478           22.29912
   3529       0.00000           0.819856           22.30941
   3530       0.00000           0.820700           22.33239

  What follows are estimated values for band gap, HOMO, LUMO, etc.
  | They are estimated on a discrete k-point grid and not necessarily exact.
  | For converged numbers, create a DOS and/or band structure plot on a denser k-grid.

  Highest occupied state (VBM) at     -5.74863291 eV (relative to internal zero)
  | Occupation number:      1.80487187
  | K-point:       2 at    0.000000    0.333333    0.000000 (in units of recip. lattice)

  Lowest unoccupied state (CBM) at    -5.73322891 eV (relative to internal zero)
  | Occupation number:      0.37729164
  | K-point:       3 at    0.333333    0.000000    0.000000 (in units of recip. lattice)

  ESTIMATED overall HOMO-LUMO gap:      0.01540400 eV between HOMO at k-point 2 and LUMO at k-point 3
  | This appears to be an indirect band gap.
  | Smallest direct gap :      0.02667938 eV for k_point 3 at    0.333333    0.000000    0.000000 (in units of recip. lattice)
  However, this system has fractional occupation numbers. Since we use a finite k-point grid,
  this material is metallic within the approximate finite broadening function (occupation_type)
  applied to determine the occupation numbers.

  Writing energy levels:
  | Potential vacuum level, "upper" slab surface:     0.50132267 eV
  | Potential vacuum level, "lower" slab surface:    -0.85316480 eV
  | Work function ("upper" slab surface)        :     6.24079460 eV
  | Work function ("lower" slab surface)        :     4.88630713 eV
  | VBM (reference: upper vacuum level)         :     6.24995557 eV
  | CBM (reference: upper vacuum level)         :     6.23455157 eV

  Total energy components:
  | Sum of eigenvalues            :     -159474.63486869 Ha    -4339525.60740895 eV
  | XC energy correction          :      -10907.56624372 Ha     -296809.97901702 eV
  | XC potential correction       :       14171.48629654 Ha      385625.76255166 eV
  | Free-atom electrostatic energy:     -116662.61881899 Ha    -3174551.37746045 eV
  | Hartree energy correction     :         -46.95191974 Ha       -1277.62674093 eV
  | Entropy correction            :          -0.00004060 Ha          -0.00110482 eV
  | ---------------------------
  | Total energy                  :     -272920.28555459 Ha    -7426538.82807569 eV
  | Total energy, T -> 0          :     -272920.28559519 Ha    -7426538.82918051 eV  <-- do not rely on this value for anything but (periodic) metals
  | Electronic free energy        :     -272920.28563579 Ha    -7426538.83028533 eV

  Derived energy quantities:
  | Kinetic energy                :      277680.23510730 Ha     7556063.64555524 eV
  | Electrostatic energy          :     -539692.95441817 Ha   -14685792.49461392 eV
  | Energy correction for multipole
  | error in Hartree potential    :           0.06252483 Ha           1.70138720 eV
  | Sum of eigenvalues per atom                           :      -17640.34799760 eV
  | Total energy (T->0) per atom                          :      -30189.18223244 eV  <-- do not rely on this value for anything but (periodic) metals
  | Electronic free energy per atom                       :      -30189.18223693 eV
  Evaluating new KS density using the density matrix
  Evaluating density matrix
