------------------------------------------------------------
          Invoking FHI-aims ...

          When using FHI-aims, please cite the following reference:

            Volker Blum, Ralf Gehrke, Felix Hanke, Paula Havu,
            Ville Havu, Xinguo Ren, Karsten Reuter, and Matthias Scheffler,
            'Ab Initio Molecular Simulations with Numeric Atom-Centered Orbitals',
            Computer Physics Communications 180, 2175-2196 (2009)

          In addition, many other developments in FHI-aims are likely important for
          your particular application. If so, please cite them. A partial list of references
          is written at the end of this file. Thank you for giving credit to the authors
          of these developments.

          For general information about FHI-aims please find us at

            https://fhi-aims.org

          Online tutorials can be found at

            https://fhi-aims-club.gitlab.io/tutorials/tutorials-overview/

          For any questions about FHI-aims, please visit our slack channel at

            https://fhi-aims.slack.com

          and our main development and support site at

            https://aims-git.rz-berlin.mpg.de .

          The latter site, in particular, has a wiki to collect information, as well
          as an issue tracker to log discussions, suggest improvements, and report issues
          or bugs. https://aims-git.rz-berlin.mpg.de is also the main development site
          of the project and all new and updated code versions can be obtained there.
          Please send an email to aims-coordinators@fhi-berlin.mpg.de and we will add
          you to these sites. They are for you and everyone is welcome there.

------------------------------------------------------------



  Date     :  20231006, Time     :  135619.062
  Time zero on CPU 1             :   0.588138000000000E+00  s.
  Internal wall clock time zero  :           465832579.062  s.

  FHI-aims created a unique identifier for this run for later identification
  aims_uuid : 7242EBDD-A686-4295-A53D-FE375D1ED394

  Build configuration of the current instance of FHI-aims
  -------------------------------------------------------
  FHI-aims version      : 230612
  Commit number         : 0c86b0d53
  CMake host system     : Linux-3.10.0-1160.80.1.el7.x86_64
  CMake version         : 3.24.2
  Fortran compiler      : /apps/compilers/intel/2018.2/compilers_and_libraries_2018/linux/mpi/intel64/bin/mpif90 (Intel) version 18.0.2.20180210
  Fortran compiler flags: -O3 -ip -fp-model precise
  C compiler            : /apps/compilers/intel/2018.2/compilers_and_libraries_2018/linux/bin/intel64/icc (Intel) version 18.0.2.20180210
  C compiler flags      : -O3 -ip -fp-model precise -std=gnu99
  HIP compiler          :
  HIP compiler flags    :
  HIP GPU arch          :
  ELPA2 kernel          : AVX2
  Using MPI
  Using ScaLAPACK
  Using LibXC
  Using i-PI
  Using RLSY
  Linking against: /apps/compilers/intel/2018.2/compilers_and_libraries_2018/linux/mkl/lib/intel64/libmkl_intel_lp64.so
                   /apps/compilers/intel/2018.2/compilers_and_libraries_2018/linux/mkl/lib/intel64/libmkl_intel_thread.so
                   /apps/compilers/intel/2018.2/compilers_and_libraries_2018/linux/mkl/lib/intel64/libmkl_core.so
                   /apps/compilers/intel/2018.2/compilers_and_libraries_2018/linux/mkl/lib/intel64/libmkl_blacs_intelmpi_lp64.so
                   /apps/compilers/intel/2018.2/compilers_and_libraries_2018/linux/mkl/lib/intel64/libmkl_scalapack_lp64.so
                   /usr/lib64/libpthread.so

  Using       40 parallel tasks.
  Task        0 on host ccs0056 reporting.
  Task        1 on host ccs0056 reporting.
  Task        2 on host ccs0056 reporting.
  Task        3 on host ccs0056 reporting.
  Task        4 on host ccs0056 reporting.
  Task        5 on host ccs0056 reporting.
  Task        6 on host ccs0056 reporting.
  Task        7 on host ccs0056 reporting.
  Task        8 on host ccs0056 reporting.
  Task        9 on host ccs0056 reporting.
  Task       10 on host ccs0056 reporting.
  Task       11 on host ccs0056 reporting.
  Task       12 on host ccs0056 reporting.
  Task       13 on host ccs0056 reporting.
  Task       14 on host ccs0056 reporting.
  Task       15 on host ccs0056 reporting.
  Task       16 on host ccs0056 reporting.
  Task       17 on host ccs0056 reporting.
  Task       18 on host ccs0056 reporting.
  Task       19 on host ccs0056 reporting.
  Task       20 on host ccs0056 reporting.
  Task       21 on host ccs0056 reporting.
  Task       22 on host ccs0056 reporting.
  Task       23 on host ccs0056 reporting.
  Task       24 on host ccs0056 reporting.
  Task       25 on host ccs0056 reporting.
  Task       26 on host ccs0056 reporting.
  Task       27 on host ccs0056 reporting.
  Task       28 on host ccs0056 reporting.
  Task       29 on host ccs0056 reporting.
  Task       30 on host ccs0056 reporting.
  Task       31 on host ccs0056 reporting.
  Task       32 on host ccs0056 reporting.
  Task       33 on host ccs0056 reporting.
  Task       34 on host ccs0056 reporting.
  Task       35 on host ccs0056 reporting.
  Task       36 on host ccs0056 reporting.
  Task       37 on host ccs0056 reporting.
  Task       38 on host ccs0056 reporting.
  Task       39 on host ccs0056 reporting.

  Obtaining array dimensions for all initial allocations:
  
  -----------------------------------------------------------------------
  Parsing control.in (first pass over file, find array dimensions only).
  The contents of control.in will be repeated verbatim below
  unless switched off by setting 'verbatim_writeout .false.' .
  in the first line of control.in .
  -----------------------------------------------------------------------
  
  #===============================================================================
  # FHI-aims file: ./control.in
  # Created using the Atomic Simulation Environment (ASE)
  # Fri Oct  6 13:56:16 2023
  #===============================================================================
  xc_pre                             pbe 15
  spin                               none
  relativistic                       atomic_zora scalar
  sc_accuracy_etot                   0.001
  sc_accuracy_eev                    0.001
  sc_accuracy_rho                    1e-06
  sc_accuracy_forces                 0.0001
  override_warning_libxc             true
  xc                                 libxc MGGA_X_MBEEF+GGA_C_PBE_SOL
  use_dipole_correction              .true.
  k_grid                             3 3 1
  use_pimd_wrapper                   ccs0056 55321
  #===============================================================================
  
  ################################################################################
  #
  #  FHI-aims code project
  #  VB, Fritz-Haber Institut, 2009
  #
  #  Suggested "light" defaults for O atom (to be pasted into control.in file)
  #  Be sure to double-check any results obtained with these settings for post-processing,
  #  e.g., with the "tight" defaults and larger basis sets.
  #
  ################################################################################
    species        O
  #     global species definitions
      nucleus             8
      mass                15.9994
  #
      l_hartree           4
  #
      cut_pot             3.5  1.5  1.0
      basis_dep_cutoff    1e-4
  #
      radial_base         36 5.0
      radial_multiplier   1
       angular_grids specified
        division   0.2659   50
        division   0.4451  110
        division   0.6052  194
        division   0.7543  302
  #      division   0.8014  434
  #      division   0.8507  590
  #      division   0.8762  770
  #      division   0.9023  974
  #      division   1.2339 1202
  #      outer_grid 974
        outer_grid 302
  ################################################################################
  #
  #  Definition of "minimal" basis
  #
  ################################################################################
  #     valence basis states
      valence      2  s   2.
      valence      2  p   4.
  #     ion occupancy
      ion_occ      2  s   1.
      ion_occ      2  p   3.
  ################################################################################
  #
  #  Suggested additional basis functions. For production calculations,
  #  uncomment them one after another (the most important basis functions are
  #  listed first).
  #
  #  Constructed for dimers: 1.0 A, 1.208 A, 1.5 A, 2.0 A, 3.0 A
  #
  ################################################################################
  #  "First tier" - improvements: -699.05 meV to -159.38 meV
       hydro 2 p 1.8
       hydro 3 d 7.6
       hydro 3 s 6.4
  #  "Second tier" - improvements: -49.91 meV to -5.39 meV
  #     hydro 4 f 11.6
  #     hydro 3 p 6.2
  #     hydro 3 d 5.6
  #     hydro 5 g 17.6
  #     hydro 1 s 0.75
  #  "Third tier" - improvements: -2.83 meV to -0.50 meV
  #     ionic 2 p auto
  #     hydro 4 f 10.8
  #     hydro 4 d 4.7
  #     hydro 2 s 6.8
  #  "Fourth tier" - improvements: -0.40 meV to -0.12 meV
  #     hydro 3 p 5
  #     hydro 3 s 3.3
  #     hydro 5 g 15.6
  #     hydro 4 f 17.6
  #     hydro 4 d 14
  # Further basis functions - -0.08 meV and below
  #     hydro 3 s 2.1
  #     hydro 4 d 11.6
  #     hydro 3 p 16
  #     hydro 2 s 17.2
  ################################################################################
  #
  #  FHI-aims code project
  #  VB, Fritz-Haber Institut, 2010
  #
  #  Suggested "light" defaults for Zn atom (to be pasted into control.in file)
  #  Be sure to double-check any results obtained with these settings for post-processing,
  #  e.g., with the "tight" defaults and larger basis sets.
  #
  ################################################################################
    species        Zn
  #     global species definitions
      nucleus             30
      mass                65.409
  #
      l_hartree           4
  #
      cut_pot             3.5          1.5  1.0
      basis_dep_cutoff    1e-4
  #
      radial_base         53 5.0
      radial_multiplier   1
      angular_grids       specified
        division   0.5114   50
        division   0.8989  110
        division   1.2692  194
        division   1.6226  302
  #      division   1.7854  434
  #      division   2.0877  590
  #      division   2.1298  770
  #      division   2.1730  974
  #      division   2.5659 1202
        outer_grid  302
  ################################################################################
  #
  #  Definition of "minimal" basis
  #
  ################################################################################
  #     valence basis states
      valence      4  s   2.
      valence      3  p   6.
      valence      3  d  10.
  #     ion occupancy
      ion_occ      4  s   1.
      ion_occ      3  p   6.
      ion_occ      3  d   9.
  ################################################################################
  #
  #  Suggested additional basis functions. For production calculations,
  #  uncomment them one after another (the most important basis functions are
  #  listed first).
  #
  #  Constructed for dimers: 2.00 A, 2.30 A, 2.85 A, 3.50 A, 4.25 A
  #
  ################################################################################
  #  "First tier" - improvements: -270.82 meV to -12.81 meV
       hydro 2 p 1.7
       hydro 3 s 2.9
       hydro 4 p 5.4
       hydro 4 f 7.8
       hydro 3 d 4.5
  #  "Second tier" - improvements: -3.35 meV to -0.82 meV
  #     hydro 5 g 10.8
  #     hydro 2 p 2.4
  #     hydro 3 s 6.2
  #     hydro 3 d 3
  #  "Third tier" - improvements: -0.61 meV to -0.12 meV
  #     hydro 6 h 15.2
  #     ionic 4 p auto
  #     hydro 5 s 12.8
  #     hydro 4 f 5.4
  #     hydro 4 d 7
  #  Further functions - improvements: -0.16 meV and below
  #     hydro 4 f 20
  #     hydro 3 p 2.2
  #     hydro 5 f 6.4
  #     hydro 5 g 8
  ################################################################################
  #
  #  FHI-aims code project
  #  VB, Fritz-Haber Institut, 2009
  #
  #  Suggested "light" defaults for Pd atom (to be pasted into control.in file)
  #  Be sure to double-check any results obtained with these settings for post-processing,
  #  e.g., with the "tight" defaults and larger basis sets.
  #
  ################################################################################
    species        Pd
  #     global species definitions
      nucleus             46
      mass                106.42
  #
      l_hartree           4
  #
      cut_pot             3.5  1.5  1.0
      basis_dep_cutoff    1e-4
  #
      radial_base         62 5.0
      radial_multiplier   1
      angular_grids specified
        division   0.5211   50
        division   0.9161  110
        division   1.2296  194
        division   1.5678  302
  #      division   1.9785  434
  #      division   2.0474  590
  #      division   2.1195  770
  #      division   2.1568  974
  #      division   2.7392 1202
  #       outer_grid  974
         outer_grid  302
  ################################################################################
  #
  #  Definition of "minimal" basis
  #
  ################################################################################
  #     valence basis states
      valence      5  s   1.
      valence      4  p   6.
      valence      4  d   9.
  #     ion occupancy
      ion_occ     5  s   0.
      ion_occ     4  p   6.
      ion_occ     4  d   8.
  ################################################################################
  #
  #  Suggested additional basis functions. For production calculations,
  #  uncomment them one after another (the most important basis functions are
  #  listed first).
  #
  #  Constructed for dimers: 2.0 A, 2.275 A, 2.75 A, 3.75 A
  #
  ################################################################################
  #  "First tier" - max. impr. -120.76  meV, min. impr. -5.71 meV
       ionic 5 p auto
       hydro 4 f 8
  #     hydro 5 g 10
       hydro 3 s 2.6
       hydro 3 d 2.5
  #  "Second tier" - max. impr. -5.00  meV, min. impr. -0.62 meV
  #     hydro 5 f 17.2
  #     hydro 6 h 14
  #     hydro 4 d 4
  #     hydro 5 f 7.6
  #     hydro 3 p 3.3
  #     hydro 4 s 9.4
  #  "Third tier" - max. impr. -0.54  meV, min. impr. -0.14 meV
  #     hydro 4 f 20
  #     hydro 5 g 12.8
  #     hydro 5 d 9.8
  #     hydro 6 h 15.2
  #     hydro 5 s 10
  #     hydro 6 p 9.8
  #  "Fourth tier" - max. impr. -0.15  meV, min. impr. -0.05 meV
  #     hydro 5 f 9.2
  #     hydro 2 s 5.6
  #     hydro 5 f 43.2
  #     hydro 5 d 13.2
  #     hydro 5 g 14
  #     hydro 4 p 4.7
  
  -----------------------------------------------------------------------
  Completed first pass over input file control.in .
  -----------------------------------------------------------------------
  
  
  -----------------------------------------------------------------------
  Parsing geometry.in (first pass over file, find array dimensions only).
  The contents of geometry.in will be repeated verbatim below
  unless switched off by setting 'verbatim_writeout .false.' .
  in the first line of geometry.in .
  -----------------------------------------------------------------------
  
  #=======================================================
  # FHI-aims file: ./geometry.in
  # Created using the Atomic Simulation Environment (ASE)
  # Fri Oct  6 13:56:16 2023
  #=======================================================
  lattice_vector 16.3029000000000011 0.0000000000000000 0.0000000000000000
  lattice_vector -8.1514499999999970 14.1187255553573259 0.0000000000000000
  lattice_vector 0.0000000000000000 0.0000000000000000 26.2228999999999992
  atom_frac 0.0666700000000000 0.9333300000000000 0.0380100000000000 O
  atom_frac 0.2666700000000000 0.3333300000000000 0.0380100000000000 O
  atom_frac 0.2666700000000000 0.5333300000000000 0.0380100000000000 O
  atom_frac 0.2666700000000000 0.9333300000000000 0.0380100000000000 O
  atom_frac 0.4666700000000000 0.1333300000000000 0.0380100000000000 O
  atom_frac 0.4666700000000000 0.3333300000000000 0.0380100000000000 O
  atom_frac 0.4666700000000000 0.5333300000000000 0.0380100000000000 O
  atom_frac 0.4666700000000000 0.7333300000000000 0.0380100000000000 O
  atom_frac 0.4666700000000000 0.9333300000000000 0.0380100000000000 O
  atom_frac 0.6666700000000000 0.1333300000000000 0.0380100000000000 O
  atom_frac 0.6666700000000000 0.5333300000000000 0.0380100000000000 O
  atom_frac 0.6666700000000000 0.7333300000000000 0.0380100000000000 O
  atom_frac 0.6666700000000000 0.9333300000000000 0.0380100000000000 O
  atom_frac 0.8666700000000001 0.1333300000000000 0.0380100000000000 O
  atom_frac 0.8666700000000001 0.3333300000000000 0.0380100000000000 O
  atom_frac 0.8666700000000001 0.5333300000000000 0.0380100000000000 O
  atom_frac 0.8666700000000001 0.7333300000000000 0.0380100000000000 O
  atom_frac 0.8666700000000001 0.9333300000000000 0.0380100000000000 O
  atom_frac 0.5333300000000001 0.4666699999999999 0.0619900000000000 Zn
  atom_frac 0.3333300000000000 0.2666700000000000 0.0619900000000000 Zn
  atom_frac 0.5333300000000001 0.6666700000000000 0.0619900000000000 Zn
  atom_frac 0.1333300000000000 0.6666700000000000 0.0619900000000000 Zn
  atom_frac 0.5333300000000000 0.8666699999999999 0.0619900000000000 Zn
  atom_frac 0.3333300000000000 0.4666699999999999 0.0619900000000000 Zn
  atom_frac 0.7333300000000000 0.0666700000000000 0.0619900000000000 Zn
  atom_frac 0.1333300000000000 0.0666700000000000 0.0619900000000000 Zn
  atom_frac 0.7333300000000000 0.2666700000000000 0.0619900000000000 Zn
  atom_frac 0.3333300000000000 0.6666700000000000 0.0619900000000000 Zn
  atom_frac 0.7333299999999999 0.4666699999999999 0.0619900000000000 Zn
  atom_frac 0.1333299999999999 0.8666699999999999 0.0619900000000000 Zn
  atom_frac 0.7333300000000000 0.6666700000000000 0.0619900000000000 Zn
  atom_frac 0.3333300000000000 0.8666699999999999 0.0619900000000000 Zn
  atom_frac 0.7333300000000000 0.8666699999999999 0.0619900000000000 Zn
  atom_frac 0.1333300000000000 0.4666699999999999 0.0619900000000000 Zn
  atom_frac 0.9333300000000000 0.0666700000000000 0.0619900000000000 Zn
  atom_frac 0.5333300000000001 0.0666700000000000 0.0619900000000000 Zn
  atom_frac 0.9333300000000000 0.2666700000000000 0.0619900000000000 Zn
  atom_frac 0.3333300000000000 0.0666700000000000 0.0619900000000000 Zn
  atom_frac 0.9333299999999999 0.4666699999999999 0.0619900000000000 Zn
  atom_frac 0.5333300000000001 0.2666700000000000 0.0619900000000000 Zn
  atom_frac 0.9333300000000000 0.6666700000000000 0.0619900000000000 Zn
  atom_frac 0.1333300000000000 0.2666700000000000 0.0619900000000000 Zn
  atom_frac 0.9333299999999999 0.8666699999999999 0.0619900000000000 Zn
  atom_frac 0.7333300000000000 0.2666700000000000 0.1380100000000000 O
  atom_frac 0.3333300000000000 0.4666699999999999 0.1380100000000000 O
  atom_frac 0.5333300000000001 0.2666700000000000 0.1380100000000000 O
  atom_frac 0.7333299999999999 0.4666699999999999 0.1380100000000000 O
  atom_frac 0.1333300000000000 0.6666700000000000 0.1380100000000000 O
  atom_frac 0.3333300000000000 0.0666700000000000 0.1380100000000000 O
  atom_frac 0.7333300000000000 0.6666700000000000 0.1380100000000000 O
  atom_frac 0.5333300000000001 0.4666699999999999 0.1380100000000000 O
  atom_frac 0.3333300000000000 0.6666700000000000 0.1380100000000000 O
  atom_frac 0.7333300000000000 0.8666699999999999 0.1380100000000000 O
  atom_frac 0.1333300000000000 0.4666699999999999 0.1380100000000000 O
  atom_frac 0.5333300000000001 0.6666700000000000 0.1380100000000000 O
  atom_frac 0.9333300000000000 0.0666700000000000 0.1380100000000000 O
  atom_frac 0.1333300000000000 0.0666700000000000 0.1380100000000000 O
  atom_frac 0.3333300000000000 0.8666699999999999 0.1380100000000000 O
  atom_frac 0.9333300000000000 0.2666700000000000 0.1380100000000000 O
  atom_frac 0.5333300000000000 0.8666699999999999 0.1380100000000000 O
  atom_frac 0.3333300000000000 0.2666700000000000 0.1380100000000000 O
  atom_frac 0.9333299999999999 0.4666699999999999 0.1380100000000000 O
  atom_frac 0.1333299999999999 0.8666699999999999 0.1380100000000000 O
  atom_frac 0.7333300000000000 0.0666700000000000 0.1380100000000000 O
  atom_frac 0.9333300000000000 0.6666700000000000 0.1380100000000000 O
  atom_frac 0.5333300000000001 0.0666700000000000 0.1380100000000000 O
  atom_frac 0.1333300000000000 0.2666700000000000 0.1380100000000000 O
  atom_frac 0.9333299999999999 0.8666699999999999 0.1380100000000000 O
  atom_frac 0.6666700000000000 0.7333300000000000 0.1619900000000000 Zn
  atom_frac 0.4666700000000000 0.1333300000000000 0.1619900000000000 Zn
  atom_frac 0.0666700000000000 0.9333300000000000 0.1619900000000000 Zn
  atom_frac 0.4666700000000000 0.9333300000000000 0.1619900000000000 Zn
  atom_frac 0.6666700000000000 0.9333300000000000 0.1619900000000000 Zn
  atom_frac 0.0666700000000000 0.7333300000000000 0.1619900000000000 Zn
  atom_frac 0.2666700000000000 0.7333300000000000 0.1619900000000000 Zn
  atom_frac 0.4666700000000000 0.3333300000000000 0.1619900000000000 Zn
  atom_frac 0.8666700000000001 0.1333300000000000 0.1619900000000000 Zn
  atom_frac 0.6666700000000000 0.1333300000000000 0.1619900000000000 Zn
  atom_frac 0.2666700000000000 0.3333300000000000 0.1619900000000000 Zn
  atom_frac 0.0666700000000000 0.3333300000000000 0.1619900000000000 Zn
  atom_frac 0.8666700000000001 0.3333300000000000 0.1619900000000000 Zn
  atom_frac 0.0666700000000000 0.1333300000000000 0.1619900000000000 Zn
  atom_frac 0.6666700000000000 0.3333300000000000 0.1619900000000000 Zn
  atom_frac 0.4666700000000000 0.5333300000000000 0.1619900000000000 Zn
  atom_frac 0.8666700000000001 0.5333300000000000 0.1619900000000000 Zn
  atom_frac 0.2666700000000000 0.9333300000000000 0.1619900000000000 Zn
  atom_frac 0.2666700000000000 0.1333300000000000 0.1619900000000000 Zn
  atom_frac 0.6666700000000000 0.5333300000000000 0.1619900000000000 Zn
  atom_frac 0.8666700000000001 0.7333300000000000 0.1619900000000000 Zn
  atom_frac 0.2666700000000000 0.5333300000000000 0.1619900000000000 Zn
  atom_frac 0.4666700000000000 0.7333300000000000 0.1619900000000000 Zn
  atom_frac 0.0666700000000000 0.5333300000000000 0.1619900000000000 Zn
  atom_frac 0.8666700000000001 0.9333300000000000 0.1619900000000000 Zn
  atom_frac 0.4666700000000000 0.5333300000000000 0.2380100000000000 O
  atom_frac 0.2666700000000000 0.3333300000000000 0.2380100000000000 O
  atom_frac 0.0666700000000000 0.7333300000000000 0.2380100000000000 O
  atom_frac 0.4666700000000000 0.1333300000000000 0.2380100000000000 O
  atom_frac 0.8666700000000001 0.1333300000000000 0.2380100000000000 O
  atom_frac 0.6666700000000000 0.3333300000000000 0.2380100000000000 O
  atom_frac 0.2666700000000000 0.7333300000000000 0.2380100000000000 O
  atom_frac 0.4666700000000000 0.7333300000000000 0.2380100000000000 O
  atom_frac 0.2666700000000000 0.1333300000000000 0.2380100000000000 O
  atom_frac 0.8666700000000001 0.3333300000000000 0.2380100000000000 O
  atom_frac 0.0666700000000000 0.9333300000000000 0.2380100000000000 O
  atom_frac 0.6666700000000000 0.5333300000000000 0.2380100000000000 O
  atom_frac 0.0666700000000000 0.3333300000000000 0.2380100000000000 O
  atom_frac 0.4666700000000000 0.3333300000000000 0.2380100000000000 O
  atom_frac 0.8666700000000001 0.5333300000000000 0.2380100000000000 O
  atom_frac 0.4666700000000000 0.9333300000000000 0.2380100000000000 O
  atom_frac 0.2666700000000000 0.5333300000000000 0.2380100000000000 O
  atom_frac 0.6666700000000000 0.7333300000000000 0.2380100000000000 O
  atom_frac 0.2666700000000000 0.9333300000000000 0.2380100000000000 O
  atom_frac 0.8666700000000001 0.7333300000000000 0.2380100000000000 O
  atom_frac 0.0666700000000000 0.5333300000000000 0.2380100000000000 O
  atom_frac 0.0666700000000000 0.1333300000000000 0.2380100000000000 O
  atom_frac 0.6666700000000000 0.1333300000000000 0.2380100000000000 O
  atom_frac 0.6666700000000000 0.9333300000000000 0.2380100000000000 O
  atom_frac 0.8666700000000001 0.9333300000000000 0.2380100000000000 O
  atom_frac 0.9333300000000000 0.0666700000000000 0.2619900000000000 Zn
  atom_frac 0.1333300000000000 0.0666700000000000 0.2619900000000000 Zn
  atom_frac 0.5333300000000000 0.8666699999999999 0.2619900000000000 Zn
  atom_frac 0.7333299999999999 0.4666699999999999 0.2619900000000000 Zn
  atom_frac 0.3333300000000000 0.6666700000000000 0.2619900000000000 Zn
  atom_frac 0.1333300000000000 0.6666700000000000 0.2619900000000000 Zn
  atom_frac 0.9333300000000000 0.2666700000000000 0.2619900000000000 Zn
  atom_frac 0.5333300000000001 0.4666699999999999 0.2619900000000000 Zn
  atom_frac 0.5333300000000001 0.0666700000000000 0.2619900000000000 Zn
  atom_frac 0.1333300000000000 0.4666699999999999 0.2619900000000000 Zn
  atom_frac 0.7333300000000000 0.6666700000000000 0.2619900000000000 Zn
  atom_frac 0.7333300000000000 0.0666700000000000 0.2619900000000000 Zn
  atom_frac 0.9333299999999999 0.4666699999999999 0.2619900000000000 Zn
  atom_frac 0.3333300000000000 0.4666699999999999 0.2619900000000000 Zn
  atom_frac 0.1333299999999999 0.8666699999999999 0.2619900000000000 Zn
  atom_frac 0.3333300000000000 0.2666700000000000 0.2619900000000000 Zn
  atom_frac 0.5333300000000001 0.6666700000000000 0.2619900000000000 Zn
  atom_frac 0.7333300000000000 0.8666699999999999 0.2619900000000000 Zn
  atom_frac 0.9333300000000000 0.6666700000000000 0.2619900000000000 Zn
  atom_frac 0.3333300000000000 0.8666699999999999 0.2619900000000000 Zn
  atom_frac 0.7333300000000000 0.2666700000000000 0.2619900000000000 Zn
  atom_frac 0.5333300000000001 0.2666700000000000 0.2619900000000000 Zn
  atom_frac 0.3333300000000000 0.0666700000000000 0.2619900000000000 Zn
  atom_frac 0.1333300000000000 0.2666700000000000 0.2619900000000000 Zn
  atom_frac 0.9333299999999999 0.8666699999999999 0.2619900000000000 Zn
  atom_frac 0.7333300000000000 0.0666700000000000 0.3380100000000000 O
  atom_frac 0.5333300000000001 0.2666700000000000 0.3380100000000000 O
  atom_frac 0.5333300000000001 0.6666700000000000 0.3380100000000000 O
  atom_frac 0.9333300000000000 0.2666700000000000 0.3380100000000000 O
  atom_frac 0.7333300000000000 0.6666700000000000 0.3380100000000000 O
  atom_frac 0.3333300000000000 0.6666700000000000 0.3380100000000000 O
  atom_frac 0.3333300000000000 0.0666700000000000 0.3380100000000000 O
  atom_frac 0.3333300000000000 0.4666699999999999 0.3380100000000000 O
  atom_frac 0.3333300000000000 0.2666700000000000 0.3380100000000000 O
  atom_frac 0.7333300000000000 0.2666700000000000 0.3380100000000000 O
  atom_frac 0.9333299999999999 0.4666699999999999 0.3380100000000000 O
  atom_frac 0.5333300000000001 0.0666700000000000 0.3380100000000000 O
  atom_frac 0.7333300000000000 0.8666699999999999 0.3380100000000000 O
  atom_frac 0.1333300000000000 0.6666700000000000 0.3380100000000000 O
  atom_frac 0.5333300000000000 0.8666699999999999 0.3380100000000000 O
  atom_frac 0.5333300000000001 0.4666699999999999 0.3380100000000000 O
  atom_frac 0.1333300000000000 0.0666700000000000 0.3380100000000000 O
  atom_frac 0.9333300000000000 0.6666700000000000 0.3380100000000000 O
  atom_frac 0.1333300000000000 0.2666700000000000 0.3380100000000000 O
  atom_frac 0.7333299999999999 0.4666699999999999 0.3380100000000000 O
  atom_frac 0.9333300000000000 0.0666700000000000 0.3380100000000000 O
  atom_frac 0.3333300000000000 0.8666699999999999 0.3380100000000000 O
  atom_frac 0.1333299999999999 0.8666699999999999 0.3380100000000000 O
  atom_frac 0.1333300000000000 0.4666699999999999 0.3380100000000000 O
  atom_frac 0.9333299999999999 0.8666699999999999 0.3380100000000000 O
  atom_frac 0.8666700000000001 0.3333300000000000 0.3619900000000000 Zn
  atom_frac 0.6666700000000000 0.3333300000000000 0.3619900000000000 Zn
  atom_frac 0.4666700000000000 0.9333300000000000 0.3619900000000000 Zn
  atom_frac 0.2666700000000000 0.7333300000000000 0.3619900000000000 Zn
  atom_frac 0.2666700000000000 0.5333300000000000 0.3619900000000000 Zn
  atom_frac 0.0666700000000000 0.3333300000000000 0.3619900000000000 Zn
  atom_frac 0.6666700000000000 0.9333300000000000 0.3619900000000000 Zn
  atom_frac 0.4666700000000000 0.3333300000000000 0.3619900000000000 Zn
  atom_frac 0.8666700000000001 0.5333300000000000 0.3619900000000000 Zn
  atom_frac 0.0666700000000000 0.9333300000000000 0.3619900000000000 Zn
  atom_frac 0.0666700000000000 0.7333300000000000 0.3619900000000000 Zn
  atom_frac 0.6666700000000000 0.5333300000000000 0.3619900000000000 Zn
  atom_frac 0.4666700000000000 0.7333300000000000 0.3619900000000000 Zn
  atom_frac 0.6666700000000000 0.1333300000000000 0.3619900000000000 Zn
  atom_frac 0.0666700000000000 0.1333300000000000 0.3619900000000000 Zn
  atom_frac 0.8666700000000001 0.1333300000000000 0.3619900000000000 Zn
  atom_frac 0.8666700000000001 0.7333300000000000 0.3619900000000000 Zn
  atom_frac 0.4666700000000000 0.1333300000000000 0.3619900000000000 Zn
  atom_frac 0.2666700000000000 0.1333300000000000 0.3619900000000000 Zn
  atom_frac 0.0666700000000000 0.5333300000000000 0.3619900000000000 Zn
  atom_frac 0.2666700000000000 0.9333300000000000 0.3619900000000000 Zn
  atom_frac 0.6666700000000000 0.7333300000000000 0.3619900000000000 Zn
  atom_frac 0.4666700000000000 0.5333300000000000 0.3619900000000000 Zn
  atom_frac 0.2666700000000000 0.3333300000000000 0.3619900000000000 Zn
  atom_frac 0.8666700000000001 0.9333300000000000 0.3619900000000000 Zn
  atom_frac 0.2666700000000000 0.7333300000000000 0.4380100000000000 O
  atom_frac 0.6666700000000000 0.9333300000000000 0.4380100000000000 O
  atom_frac 0.6666700000000000 0.1333300000000000 0.4380100000000000 O
  atom_frac 0.6666700000000000 0.5333300000000000 0.4380100000000000 O
  atom_frac 0.0666700000000000 0.1333300000000000 0.4380100000000000 O
  atom_frac 0.0666700000000000 0.3333300000000000 0.4380100000000000 O
  atom_frac 0.8666700000000001 0.5333300000000000 0.4380100000000000 O
  atom_frac 0.4666700000000000 0.5333300000000000 0.4380100000000000 O
  atom_frac 0.2666700000000000 0.1333300000000000 0.4380100000000000 O
  atom_frac 0.0666700000000000 0.7333300000000000 0.4380100000000000 O
  atom_frac 0.0666700000000000 0.9333300000000000 0.4380100000000000 O
  atom_frac 0.8666700000000001 0.1333300000000000 0.4380100000000000 O
  atom_frac 0.4666700000000000 0.9333300000000000 0.4380100000000000 O
  atom_frac 0.4666700000000000 0.3333300000000000 0.4380100000000000 O
  atom_frac 0.6666700000000000 0.7333300000000000 0.4380100000000000 O
  atom_frac 0.8666700000000001 0.7333300000000000 0.4380100000000000 O
  atom_frac 0.6666700000000000 0.3333300000000000 0.4380100000000000 O
  atom_frac 0.2666700000000000 0.3333300000000000 0.4380100000000000 O
  atom_frac 0.0666700000000000 0.5333300000000000 0.4380100000000000 O
  atom_frac 0.4666700000000000 0.1333300000000000 0.4380100000000000 O
  atom_frac 0.2666700000000000 0.5333300000000000 0.4380100000000000 O
  atom_frac 0.8666700000000001 0.3333300000000000 0.4380100000000000 O
  atom_frac 0.4666700000000000 0.7333300000000000 0.4380100000000000 O
  atom_frac 0.2666700000000000 0.9333300000000000 0.4380100000000000 O
  atom_frac 0.8666700000000001 0.9333300000000000 0.4380100000000000 O
  atom_frac 0.9333299999999999 0.4666699999999999 0.4619900000000000 Zn
  atom_frac 0.1333300000000000 0.4666699999999999 0.4619900000000000 Zn
  atom_frac 0.9333300000000000 0.0666700000000000 0.4619900000000000 Zn
  atom_frac 0.5333300000000001 0.6666700000000000 0.4619900000000000 Zn
  atom_frac 0.3333300000000000 0.2666700000000000 0.4619900000000000 Zn
  atom_frac 0.1333300000000000 0.6666700000000000 0.4619900000000000 Zn
  atom_frac 0.1333300000000000 0.2666700000000000 0.4619900000000000 Zn
  atom_frac 0.5333300000000001 0.4666699999999999 0.4619900000000000 Zn
  atom_frac 0.9333300000000000 0.6666700000000000 0.4619900000000000 Zn
  atom_frac 0.7333300000000000 0.0666700000000000 0.4619900000000000 Zn
  atom_frac 0.3333300000000000 0.0666700000000000 0.4619900000000000 Zn
  atom_frac 0.9333300000000000 0.2666700000000000 0.4619900000000000 Zn
  atom_frac 0.7333299999999999 0.4666699999999999 0.4619900000000000 Zn
  atom_frac 0.7333300000000000 0.8666699999999999 0.4619900000000000 Zn
  atom_frac 0.5333300000000001 0.2666700000000000 0.4619900000000000 Zn
  atom_frac 0.3333300000000000 0.6666700000000000 0.4619900000000000 Zn
  atom_frac 0.5333300000000001 0.0666700000000000 0.4619900000000000 Zn
  atom_frac 0.9333299999999999 0.8666699999999999 0.4619900000000000 Zn
  atom_frac 0.9333299999999999 0.4666699999999999 0.5191900000000000 Pd
  atom_frac 0.0333300000000000 0.3666700000000000 0.5191900000000000 Pd
  atom_frac 0.1333300000000000 0.2666700000000000 0.5191900000000000 Pd
  atom_frac 0.2333300000000000 0.1666700000000000 0.5191900000000000 Pd
  atom_frac 0.3333300000000000 0.0666700000000000 0.5191900000000000 Pd
  atom_frac 0.4333300000000000 0.9666700000000000 0.5191900000000000 Pd
  atom_frac 0.5333300000000000 0.8666699999999999 0.5191900000000000 Pd
  atom_frac 0.6333299999999999 0.7666699999999999 0.5191900000000000 Pd
  atom_frac 0.7333300000000000 0.6666700000000000 0.5191900000000000 Pd
  atom_frac 0.8333300000000000 0.5666700000000000 0.5191900000000000 Pd
  
  -----------------------------------------------------------------------
  Completed first pass over input file geometry.in .
  -----------------------------------------------------------------------
  

  Basic array size parameters:
  | Number of species                 :        3
  | Number of atoms                   :      246
  | Number of lattice vectors         :        3
  | Max. basis fn. angular momentum   :        3
  | Max. atomic/ionic basis occupied n:        5
  | Max. number of basis fn. types    :        3
  | Max. radial fns per species/type  :       10
  | Max. logarithmic grid size        :     1444
  | Max. radial integration grid size :       62
  | Max. angular integration grid size:      302
  | Max. angular grid division number :        8
  | Radial grid for Hartree potential :     1444
  | Number of spin channels           :        1

------------------------------------------------------------
          Reading file control.in.
------------------------------------------------------------
  Pre-SCF XC: Using PBE gradient-corrected functionals.
  Spin treatment: No spin polarisation.
  Scalar relativistic treatment of kinetic energy: on-site free-atom approximation to ZORA.
  Convergence accuracy of total energy:  0.1000E-02
  Convergence accuracy of sum of eigenvalues:  0.1000E-02
  Convergence accuracy of self-consistent charge density:  0.1000E-05
  Convergence accuracy of forces:  0.1000E-03
  XC: Using LibXC. Please refer to LibXC output for further details.
  Using libxc - Initializing
  Libxc version: 6.1.0


  ** PLEASE ** be careful using LibXC. Whilst most of the LDA, GGA and MGGA functionals,
  and hybrid variations therein, should be stable (though we always recommend testing!),
  there are several fancy functionals with e.g. range-separation, like HSE03/HSE06/LC-PBEh,
  and also MGGA functionals that depend on the laplacian of the density, like BR89,
  that are not fully implemented due to the infrastrucutre for these functionals being incomplete or non-generic.
  If you want to use these functionals please contact the development team and we will work on them with you!

  You have selected libxc functional MGGA_X_MBEEF (249)
    - Description: mBEEF exchange
    - Type: MGGA(Exchange)
    - Reference to Literature:
      [1] J. Wellendorff, K. T. Lundgaard, K. W. Jacobsen, and T. Bligaard.,  J. Chem. Phys. 140, 144107 (2014)

  You have selected libxc functional GGA_C_PBE_SOL (133)
    - Description: Perdew, Burke & Ernzerhof SOL
    - Type: GGA(Correlation)
    - Reference to Literature:
      [1] J. P. Perdew, A. Ruzsinszky, G. I. Csonka, O. A. Vydrov, G. E. Scuseria, L. A. Constantin, X. Zhou, and K. Burke.,  Phys. Rev. Lett. 100, 136406 (2008)

  Switching on meta-ggas
  Using dipole correction.
  Found k-point grid:         3         3         1
  Using external wrapper (i-PI) for performing (path integral) molecular dynamics
  **Attention: initial geometry.in file will be ignored!
 
  Reading configuration options for species O                   .
  | Found nuclear charge :   8.0000
  | Found atomic mass :    15.9994000000000      amu
  | Found l_max for Hartree potential  :   4
  | Found cutoff potl. onset [A], width [A], scale factor :    3.50000    1.50000    1.00000
  | Threshold for basis-dependent cutoff potential is   0.100000E-03
  | Found data for basic radial integration grid :    36 points, outermost radius =    5.000 A
  | Found multiplier for basic radial grid :   1
  | Found angular grid specification: user-specified.
  | Specified grid contains     5 separate shells.
  | Check grid settings after all constraints further below.
  | Found free-atom valence shell :  2 s   2.000
  | Found free-atom valence shell :  2 p   4.000
  | Found free-ion valence shell :  2 s   1.000
  | Found free-ion valence shell :  2 p   3.000
  | Found hydrogenic basis function :  2 p   1.800
  | Found hydrogenic basis function :  3 d   7.600
  | Found hydrogenic basis function :  3 s   6.400
  Species O                   : Missing cutoff potential type.
  Defaulting to exp(1/x)/(1-x)^2 type cutoff potential.
  Species O : No 'logarithmic' tag. Using default grid for free atom:
  | Default logarithmic grid data [bohr] : 0.1000E-03 0.1000E+03 0.1012E+01
  Species O : On-site basis accuracy parameter (for Gram-Schmidt orthonormalisation) not specified.
  Using default value basis_acc =  0.1000000E-03.
  Species O                   : Using default innermost maximum threshold i_radial=  2 for radial functions.
  Species O                   : Default cutoff onset for free atom density etc. : 0.35000000E+01 AA.
  Species O                   : Basic radial grid will be enhanced according to radial_multiplier =   1, to contain    36 grid points.
 
  Reading configuration options for species Zn                  .
  | Found nuclear charge :  30.0000
  | Found atomic mass :    65.4090000000000      amu
  | Found l_max for Hartree potential  :   4
  | Found cutoff potl. onset [A], width [A], scale factor :    3.50000    1.50000    1.00000
  | Threshold for basis-dependent cutoff potential is   0.100000E-03
  | Found data for basic radial integration grid :    53 points, outermost radius =    5.000 A
  | Found multiplier for basic radial grid :   1
  | Found angular grid specification: user-specified.
  | Specified grid contains     5 separate shells.
  | Check grid settings after all constraints further below.
  | Found free-atom valence shell :  4 s   2.000
  | Found free-atom valence shell :  3 p   6.000
  | Found free-atom valence shell :  3 d  10.000
  | Found free-ion valence shell :  4 s   1.000
  | Found free-ion valence shell :  3 p   6.000
  | Found free-ion valence shell :  3 d   9.000
  | Found hydrogenic basis function :  2 p   1.700
  | Found hydrogenic basis function :  3 s   2.900
  | Found hydrogenic basis function :  4 p   5.400
  | Found hydrogenic basis function :  4 f   7.800
  | Found hydrogenic basis function :  3 d   4.500
  Species Zn                  : Missing cutoff potential type.
  Defaulting to exp(1/x)/(1-x)^2 type cutoff potential.
  Species Zn: No 'logarithmic' tag. Using default grid for free atom:
  | Default logarithmic grid data [bohr] : 0.1000E-03 0.1000E+03 0.1012E+01
  Species Zn: On-site basis accuracy parameter (for Gram-Schmidt orthonormalisation) not specified.
  Using default value basis_acc =  0.1000000E-03.
  Species Zn                  : Using default innermost maximum threshold i_radial=  2 for radial functions.
  Species Zn                  : Default cutoff onset for free atom density etc. : 0.35000000E+01 AA.
  Species Zn                  : Basic radial grid will be enhanced according to radial_multiplier =   1, to contain    53 grid points.
 
  Reading configuration options for species Pd                  .
  | Found nuclear charge :  46.0000
  | Found atomic mass :    106.420000000000      amu
  | Found l_max for Hartree potential  :   4
  | Found cutoff potl. onset [A], width [A], scale factor :    3.50000    1.50000    1.00000
  | Threshold for basis-dependent cutoff potential is   0.100000E-03
  | Found data for basic radial integration grid :    62 points, outermost radius =    5.000 A
  | Found multiplier for basic radial grid :   1
  | Found angular grid specification: user-specified.
  | Specified grid contains     5 separate shells.
  | Check grid settings after all constraints further below.
  | Found free-atom valence shell :  5 s   1.000
  | Found free-atom valence shell :  4 p   6.000
  | Found free-atom valence shell :  4 d   9.000
  | Found free-ion valence shell :  5 s   0.000
  | Found free-ion valence shell :  4 p   6.000
  | Found free-ion valence shell :  4 d   8.000
  | Found ionic basis function :  5 p , default cutoff radius.
  | Found hydrogenic basis function :  4 f   8.000
  | Found hydrogenic basis function :  3 s   2.600
  | Found hydrogenic basis function :  3 d   2.500
  Species Pd                  : Missing cutoff potential type.
  Defaulting to exp(1/x)/(1-x)^2 type cutoff potential.
  Species Pd: No 'logarithmic' tag. Using default grid for free atom:
  | Default logarithmic grid data [bohr] : 0.1000E-03 0.1000E+03 0.1012E+01
  | Will include ionic basis functions of  2.0-fold positive Pd                   ion.
  Species Pd: On-site basis accuracy parameter (for Gram-Schmidt orthonormalisation) not specified.
  Using default value basis_acc =  0.1000000E-03.
  Species Pd                  : Using default innermost maximum threshold i_radial=  2 for radial functions.
  Species Pd                  : Default cutoff onset for free atom density etc. : 0.35000000E+01 AA.
  Species Pd                  : Basic radial grid will be enhanced according to radial_multiplier =   1, to contain    62 grid points.
 
  Finished reading input file 'control.in'.
 
------------------------------------------------------------


------------------------------------------------------------
          Reading geometry description geometry.in.
------------------------------------------------------------
  | The smallest distance between any two atoms is         1.49994988 AA.
  | The first atom of this pair is atom number                    241 .
  | The second atom of this pair is atom number                   229 .
  | Wigner-Seitz cell of the first atom image           0     0     1 .
  | (The Wigner-Seitz cell of the second atom is 0 0 0  by definition.)

  Symmetry information by spglib:
  | Precision set to  0.1E-04
  | Number of Operations  : 1
  | Space group           : 1
  | International         : P1
  | Schoenflies           : C1^1
  Input structure read successfully.
  The structure contains      246 atoms,  and a total of       4944.000 electrons.

  Input geometry:
  | Unit cell:
  |       16.30290000        0.00000000        0.00000000
  |       -8.15145000       14.11872556        0.00000000
  |        0.00000000        0.00000000       26.22290000
  | Atomic structure:
  |       Atom                x [A]            y [A]            z [A]
  |    1: Species O            -6.52107849       13.17743012        0.99673243
  |    2: Species O             1.63037151        4.70619479        0.99673243
  |    3: Species O             0.00008151        7.52993990        0.99673243
  |    4: Species O            -3.26049849       13.17743012        0.99673243
  |    5: Species O             6.52124151        1.88244968        0.99673243
  |    6: Species O             4.89095151        4.70619479        0.99673243
  |    7: Species O             3.26066151        7.52993990        0.99673243
  |    8: Species O             1.63037151       10.35368501        0.99673243
  |    9: Species O             0.00008151       13.17743012        0.99673243
  |   10: Species O             9.78182151        1.88244968        0.99673243
  |   11: Species O             6.52124151        7.52993990        0.99673243
  |   12: Species O             4.89095151       10.35368501        0.99673243
  |   13: Species O             3.26066151       13.17743012        0.99673243
  |   14: Species O            13.04240151        1.88244968        0.99673243
  |   15: Species O            11.41211151        4.70619479        0.99673243
  |   16: Species O             9.78182151        7.52993990        0.99673243
  |   17: Species O             8.15153151       10.35368501        0.99673243
  |   18: Species O             6.52124151       13.17743012        0.99673243
  |   19: Species Zn            4.89078849        6.58878565        1.62555757
  |   20: Species Zn            3.26049849        3.76504054        1.62555757
  |   21: Species Zn            3.26049849        9.41253077        1.62555757
  |   22: Species Zn           -3.26066151        9.41253077        1.62555757
  |   23: Species Zn            1.63020849       12.23627588        1.62555757
  |   24: Species Zn            1.63020849        6.58878565        1.62555757
  |   25: Species Zn           11.41194849        0.94129543        1.62555757
  |   26: Species Zn            1.63020849        0.94129543        1.62555757
  |   27: Species Zn            9.78165849        3.76504054        1.62555757
  |   28: Species Zn           -0.00008151        9.41253077        1.62555757
  |   29: Species Zn            8.15136849        6.58878565        1.62555757
  |   30: Species Zn           -4.89095151       12.23627588        1.62555757
  |   31: Species Zn            6.52107849        9.41253077        1.62555757
  |   32: Species Zn           -1.63037151       12.23627588        1.62555757
  |   33: Species Zn            4.89078849       12.23627588        1.62555757
  |   34: Species Zn           -1.63037151        6.58878565        1.62555757
  |   35: Species Zn           14.67252849        0.94129543        1.62555757
  |   36: Species Zn            8.15136849        0.94129543        1.62555757
  |   37: Species Zn           13.04223849        3.76504054        1.62555757
  |   38: Species Zn            4.89078849        0.94129543        1.62555757
  |   39: Species Zn           11.41194849        6.58878565        1.62555757
  |   40: Species Zn            6.52107849        3.76504054        1.62555757
  |   41: Species Zn            9.78165849        9.41253077        1.62555757
  |   42: Species Zn           -0.00008151        3.76504054        1.62555757
  |   43: Species Zn            8.15136849       12.23627588        1.62555757
  |   44: Species O             9.78165849        3.76504054        3.61902243
  |   45: Species O             1.63020849        6.58878565        3.61902243
  |   46: Species O             6.52107849        3.76504054        3.61902243
  |   47: Species O             8.15136849        6.58878565        3.61902243
  |   48: Species O            -3.26066151        9.41253077        3.61902243
  |   49: Species O             4.89078849        0.94129543        3.61902243
  |   50: Species O             6.52107849        9.41253077        3.61902243
  |   51: Species O             4.89078849        6.58878565        3.61902243
  |   52: Species O            -0.00008151        9.41253077        3.61902243
  |   53: Species O             4.89078849       12.23627588        3.61902243
  |   54: Species O            -1.63037151        6.58878565        3.61902243
  |   55: Species O             3.26049849        9.41253077        3.61902243
  |   56: Species O            14.67252849        0.94129543        3.61902243
  |   57: Species O             1.63020849        0.94129543        3.61902243
  |   58: Species O            -1.63037151       12.23627588        3.61902243
  |   59: Species O            13.04223849        3.76504054        3.61902243
  |   60: Species O             1.63020849       12.23627588        3.61902243
  |   61: Species O             3.26049849        3.76504054        3.61902243
  |   62: Species O            11.41194849        6.58878565        3.61902243
  |   63: Species O            -4.89095151       12.23627588        3.61902243
  |   64: Species O            11.41194849        0.94129543        3.61902243
  |   65: Species O             9.78165849        9.41253077        3.61902243
  |   66: Species O             8.15136849        0.94129543        3.61902243
  |   67: Species O            -0.00008151        3.76504054        3.61902243
  |   68: Species O             8.15136849       12.23627588        3.61902243
  |   69: Species Zn            4.89095151       10.35368501        4.24784757
  |   70: Species Zn            6.52124151        1.88244968        4.24784757
  |   71: Species Zn           -6.52107849       13.17743012        4.24784757
  |   72: Species Zn            0.00008151       13.17743012        4.24784757
  |   73: Species Zn            3.26066151       13.17743012        4.24784757
  |   74: Species Zn           -4.89078849       10.35368501        4.24784757
  |   75: Species Zn           -1.63020849       10.35368501        4.24784757
  |   76: Species Zn            4.89095151        4.70619479        4.24784757
  |   77: Species Zn           13.04240151        1.88244968        4.24784757
  |   78: Species Zn            9.78182151        1.88244968        4.24784757
  |   79: Species Zn            1.63037151        4.70619479        4.24784757
  |   80: Species Zn           -1.63020849        4.70619479        4.24784757
  |   81: Species Zn           11.41211151        4.70619479        4.24784757
  |   82: Species Zn            0.00008151        1.88244968        4.24784757
  |   83: Species Zn            8.15153151        4.70619479        4.24784757
  |   84: Species Zn            3.26066151        7.52993990        4.24784757
  |   85: Species Zn            9.78182151        7.52993990        4.24784757
  |   86: Species Zn           -3.26049849       13.17743012        4.24784757
  |   87: Species Zn            3.26066151        1.88244968        4.24784757
  |   88: Species Zn            6.52124151        7.52993990        4.24784757
  |   89: Species Zn            8.15153151       10.35368501        4.24784757
  |   90: Species Zn            0.00008151        7.52993990        4.24784757
  |   91: Species Zn            1.63037151       10.35368501        4.24784757
  |   92: Species Zn           -3.26049849        7.52993990        4.24784757
  |   93: Species Zn            6.52124151       13.17743012        4.24784757
  |   94: Species O             3.26066151        7.52993990        6.24131243
  |   95: Species O             1.63037151        4.70619479        6.24131243
  |   96: Species O            -4.89078849       10.35368501        6.24131243
  |   97: Species O             6.52124151        1.88244968        6.24131243
  |   98: Species O            13.04240151        1.88244968        6.24131243
  |   99: Species O             8.15153151        4.70619479        6.24131243
  |  100: Species O            -1.63020849       10.35368501        6.24131243
  |  101: Species O             1.63037151       10.35368501        6.24131243
  |  102: Species O             3.26066151        1.88244968        6.24131243
  |  103: Species O            11.41211151        4.70619479        6.24131243
  |  104: Species O            -6.52107849       13.17743012        6.24131243
  |  105: Species O             6.52124151        7.52993990        6.24131243
  |  106: Species O            -1.63020849        4.70619479        6.24131243
  |  107: Species O             4.89095151        4.70619479        6.24131243
  |  108: Species O             9.78182151        7.52993990        6.24131243
  |  109: Species O             0.00008151       13.17743012        6.24131243
  |  110: Species O             0.00008151        7.52993990        6.24131243
  |  111: Species O             4.89095151       10.35368501        6.24131243
  |  112: Species O            -3.26049849       13.17743012        6.24131243
  |  113: Species O             8.15153151       10.35368501        6.24131243
  |  114: Species O            -3.26049849        7.52993990        6.24131243
  |  115: Species O             0.00008151        1.88244968        6.24131243
  |  116: Species O             9.78182151        1.88244968        6.24131243
  |  117: Species O             3.26066151       13.17743012        6.24131243
  |  118: Species O             6.52124151       13.17743012        6.24131243
  |  119: Species Zn           14.67252849        0.94129543        6.87013757
  |  120: Species Zn            1.63020849        0.94129543        6.87013757
  |  121: Species Zn            1.63020849       12.23627588        6.87013757
  |  122: Species Zn            8.15136849        6.58878565        6.87013757
  |  123: Species Zn           -0.00008151        9.41253077        6.87013757
  |  124: Species Zn           -3.26066151        9.41253077        6.87013757
  |  125: Species Zn           13.04223849        3.76504054        6.87013757
  |  126: Species Zn            4.89078849        6.58878565        6.87013757
  |  127: Species Zn            8.15136849        0.94129543        6.87013757
  |  128: Species Zn           -1.63037151        6.58878565        6.87013757
  |  129: Species Zn            6.52107849        9.41253077        6.87013757
  |  130: Species Zn           11.41194849        0.94129543        6.87013757
  |  131: Species Zn           11.41194849        6.58878565        6.87013757
  |  132: Species Zn            1.63020849        6.58878565        6.87013757
  |  133: Species Zn           -4.89095151       12.23627588        6.87013757
  |  134: Species Zn            3.26049849        3.76504054        6.87013757
  |  135: Species Zn            3.26049849        9.41253077        6.87013757
  |  136: Species Zn            4.89078849       12.23627588        6.87013757
  |  137: Species Zn            9.78165849        9.41253077        6.87013757
  |  138: Species Zn           -1.63037151       12.23627588        6.87013757
  |  139: Species Zn            9.78165849        3.76504054        6.87013757
  |  140: Species Zn            6.52107849        3.76504054        6.87013757
  |  141: Species Zn            4.89078849        0.94129543        6.87013757
  |  142: Species Zn           -0.00008151        3.76504054        6.87013757
  |  143: Species Zn            8.15136849       12.23627588        6.87013757
  |  144: Species O            11.41194849        0.94129543        8.86360243
  |  145: Species O             6.52107849        3.76504054        8.86360243
  |  146: Species O             3.26049849        9.41253077        8.86360243
  |  147: Species O            13.04223849        3.76504054        8.86360243
  |  148: Species O             6.52107849        9.41253077        8.86360243
  |  149: Species O            -0.00008151        9.41253077        8.86360243
  |  150: Species O             4.89078849        0.94129543        8.86360243
  |  151: Species O             1.63020849        6.58878565        8.86360243
  |  152: Species O             3.26049849        3.76504054        8.86360243
  |  153: Species O             9.78165849        3.76504054        8.86360243
  |  154: Species O            11.41194849        6.58878565        8.86360243
  |  155: Species O             8.15136849        0.94129543        8.86360243
  |  156: Species O             4.89078849       12.23627588        8.86360243
  |  157: Species O            -3.26066151        9.41253077        8.86360243
  |  158: Species O             1.63020849       12.23627588        8.86360243
  |  159: Species O             4.89078849        6.58878565        8.86360243
  |  160: Species O             1.63020849        0.94129543        8.86360243
  |  161: Species O             9.78165849        9.41253077        8.86360243
  |  162: Species O            -0.00008151        3.76504054        8.86360243
  |  163: Species O             8.15136849        6.58878565        8.86360243
  |  164: Species O            14.67252849        0.94129543        8.86360243
  |  165: Species O            -1.63037151       12.23627588        8.86360243
  |  166: Species O            -4.89095151       12.23627588        8.86360243
  |  167: Species O            -1.63037151        6.58878565        8.86360243
  |  168: Species O             8.15136849       12.23627588        8.86360243
  |  169: Species Zn           11.41211151        4.70619479        9.49242757
  |  170: Species Zn            8.15153151        4.70619479        9.49242757
  |  171: Species Zn            0.00008151       13.17743012        9.49242757
  |  172: Species Zn           -1.63020849       10.35368501        9.49242757
  |  173: Species Zn            0.00008151        7.52993990        9.49242757
  |  174: Species Zn           -1.63020849        4.70619479        9.49242757
  |  175: Species Zn            3.26066151       13.17743012        9.49242757
  |  176: Species Zn            4.89095151        4.70619479        9.49242757
  |  177: Species Zn            9.78182151        7.52993990        9.49242757
  |  178: Species Zn           -6.52107849       13.17743012        9.49242757
  |  179: Species Zn           -4.89078849       10.35368501        9.49242757
  |  180: Species Zn            6.52124151        7.52993990        9.49242757
  |  181: Species Zn            1.63037151       10.35368501        9.49242757
  |  182: Species Zn            9.78182151        1.88244968        9.49242757
  |  183: Species Zn            0.00008151        1.88244968        9.49242757
  |  184: Species Zn           13.04240151        1.88244968        9.49242757
  |  185: Species Zn            8.15153151       10.35368501        9.49242757
  |  186: Species Zn            6.52124151        1.88244968        9.49242757
  |  187: Species Zn            3.26066151        1.88244968        9.49242757
  |  188: Species Zn           -3.26049849        7.52993990        9.49242757
  |  189: Species Zn           -3.26049849       13.17743012        9.49242757
  |  190: Species Zn            4.89095151       10.35368501        9.49242757
  |  191: Species Zn            3.26066151        7.52993990        9.49242757
  |  192: Species Zn            1.63037151        4.70619479        9.49242757
  |  193: Species Zn            6.52124151       13.17743012        9.49242757
  |  194: Species O            -1.63020849       10.35368501       11.48589243
  |  195: Species O             3.26066151       13.17743012       11.48589243
  |  196: Species O             9.78182151        1.88244968       11.48589243
  |  197: Species O             6.52124151        7.52993990       11.48589243
  |  198: Species O             0.00008151        1.88244968       11.48589243
  |  199: Species O            -1.63020849        4.70619479       11.48589243
  |  200: Species O             9.78182151        7.52993990       11.48589243
  |  201: Species O             3.26066151        7.52993990       11.48589243
  |  202: Species O             3.26066151        1.88244968       11.48589243
  |  203: Species O            -4.89078849       10.35368501       11.48589243
  |  204: Species O            -6.52107849       13.17743012       11.48589243
  |  205: Species O            13.04240151        1.88244968       11.48589243
  |  206: Species O             0.00008151       13.17743012       11.48589243
  |  207: Species O             4.89095151        4.70619479       11.48589243
  |  208: Species O             4.89095151       10.35368501       11.48589243
  |  209: Species O             8.15153151       10.35368501       11.48589243
  |  210: Species O             8.15153151        4.70619479       11.48589243
  |  211: Species O             1.63037151        4.70619479       11.48589243
  |  212: Species O            -3.26049849        7.52993990       11.48589243
  |  213: Species O             6.52124151        1.88244968       11.48589243
  |  214: Species O             0.00008151        7.52993990       11.48589243
  |  215: Species O            11.41211151        4.70619479       11.48589243
  |  216: Species O             1.63037151       10.35368501       11.48589243
  |  217: Species O            -3.26049849       13.17743012       11.48589243
  |  218: Species O             6.52124151       13.17743012       11.48589243
  |  219: Species Zn           11.41194849        6.58878565       12.11471757
  |  220: Species Zn           -1.63037151        6.58878565       12.11471757
  |  221: Species Zn           14.67252849        0.94129543       12.11471757
  |  222: Species Zn            3.26049849        9.41253077       12.11471757
  |  223: Species Zn            3.26049849        3.76504054       12.11471757
  |  224: Species Zn           -3.26066151        9.41253077       12.11471757
  |  225: Species Zn           -0.00008151        3.76504054       12.11471757
  |  226: Species Zn            4.89078849        6.58878565       12.11471757
  |  227: Species Zn            9.78165849        9.41253077       12.11471757
  |  228: Species Zn           11.41194849        0.94129543       12.11471757
  |  229: Species Zn            4.89078849        0.94129543       12.11471757
  |  230: Species Zn           13.04223849        3.76504054       12.11471757
  |  231: Species Zn            8.15136849        6.58878565       12.11471757
  |  232: Species Zn            4.89078849       12.23627588       12.11471757
  |  233: Species Zn            6.52107849        3.76504054       12.11471757
  |  234: Species Zn           -0.00008151        9.41253077       12.11471757
  |  235: Species Zn            8.15136849        0.94129543       12.11471757
  |  236: Species Zn            8.15136849       12.23627588       12.11471757
  |  237: Species Pd           11.41194849        6.58878565       13.61466745
  |  238: Species Pd           -2.44551651        5.17691310       13.61466745
  |  239: Species Pd           -0.00008151        3.76504054       13.61466745
  |  240: Species Pd            2.44535349        2.35316799       13.61466745
  |  241: Species Pd            4.89078849        0.94129543       13.61466745
  |  242: Species Pd           -0.81522651       13.64814843       13.61466745
  |  243: Species Pd            1.63020849       12.23627588       13.61466745
  |  244: Species Pd            4.07564349       10.82440332       13.61466745
  |  245: Species Pd            6.52107849        9.41253077       13.61466745
  |  246: Species Pd            8.96651349        8.00065821       13.61466745

  Lattice parameters for 3D lattice (in Angstroms) :    16.302900   16.302900   26.222900
  Angle(s) between unit vectors (in degrees)       :    90.000000   90.000000  120.000000


  Quantities derived from the lattice vectors (in Angstrom^-1):
  | Reciprocal lattice vector 1:  0.385403  0.222512  0.000000
  | Reciprocal lattice vector 2: -0.000000  0.445025  0.000000
  | Reciprocal lattice vector 3:  0.000000  0.000000  0.239607
  | Unit cell volume                               :   0.603589E+04  Angstrom^3

  Fractional coordinates:
                         L1                L2                L3
       atom_frac         0.06667000        0.93333000        0.03801000  O
       atom_frac         0.26667000        0.33333000        0.03801000  O
       atom_frac         0.26667000        0.53333000        0.03801000  O
       atom_frac         0.26667000        0.93333000        0.03801000  O
       atom_frac         0.46667000        0.13333000        0.03801000  O
       atom_frac         0.46667000        0.33333000        0.03801000  O
       atom_frac         0.46667000        0.53333000        0.03801000  O
       atom_frac         0.46667000        0.73333000        0.03801000  O
       atom_frac         0.46667000        0.93333000        0.03801000  O
       atom_frac         0.66667000        0.13333000        0.03801000  O
       atom_frac         0.66667000        0.53333000        0.03801000  O
       atom_frac         0.66667000        0.73333000        0.03801000  O
       atom_frac         0.66667000        0.93333000        0.03801000  O
       atom_frac         0.86667000        0.13333000        0.03801000  O
       atom_frac         0.86667000        0.33333000        0.03801000  O
       atom_frac         0.86667000        0.53333000        0.03801000  O
       atom_frac         0.86667000        0.73333000        0.03801000  O
       atom_frac         0.86667000        0.93333000        0.03801000  O
       atom_frac         0.53333000        0.46667000        0.06199000  Zn
       atom_frac         0.33333000        0.26667000        0.06199000  Zn
       atom_frac         0.53333000        0.66667000        0.06199000  Zn
       atom_frac         0.13333000        0.66667000        0.06199000  Zn
       atom_frac         0.53333000        0.86667000        0.06199000  Zn
       atom_frac         0.33333000        0.46667000        0.06199000  Zn
       atom_frac         0.73333000        0.06667000        0.06199000  Zn
       atom_frac         0.13333000        0.06667000        0.06199000  Zn
       atom_frac         0.73333000        0.26667000        0.06199000  Zn
       atom_frac         0.33333000        0.66667000        0.06199000  Zn
       atom_frac         0.73333000        0.46667000        0.06199000  Zn
       atom_frac         0.13333000        0.86667000        0.06199000  Zn
       atom_frac         0.73333000        0.66667000        0.06199000  Zn
       atom_frac         0.33333000        0.86667000        0.06199000  Zn
       atom_frac         0.73333000        0.86667000        0.06199000  Zn
       atom_frac         0.13333000        0.46667000        0.06199000  Zn
       atom_frac         0.93333000        0.06667000        0.06199000  Zn
       atom_frac         0.53333000        0.06667000        0.06199000  Zn
       atom_frac         0.93333000        0.26667000        0.06199000  Zn
       atom_frac         0.33333000        0.06667000        0.06199000  Zn
       atom_frac         0.93333000        0.46667000        0.06199000  Zn
       atom_frac         0.53333000        0.26667000        0.06199000  Zn
       atom_frac         0.93333000        0.66667000        0.06199000  Zn
       atom_frac         0.13333000        0.26667000        0.06199000  Zn
       atom_frac         0.93333000        0.86667000        0.06199000  Zn
       atom_frac         0.73333000        0.26667000        0.13801000  O
       atom_frac         0.33333000        0.46667000        0.13801000  O
       atom_frac         0.53333000        0.26667000        0.13801000  O
       atom_frac         0.73333000        0.46667000        0.13801000  O
       atom_frac         0.13333000        0.66667000        0.13801000  O
       atom_frac         0.33333000        0.06667000        0.13801000  O
       atom_frac         0.73333000        0.66667000        0.13801000  O
       atom_frac         0.53333000        0.46667000        0.13801000  O
       atom_frac         0.33333000        0.66667000        0.13801000  O
       atom_frac         0.73333000        0.86667000        0.13801000  O
       atom_frac         0.13333000        0.46667000        0.13801000  O
       atom_frac         0.53333000        0.66667000        0.13801000  O
       atom_frac         0.93333000        0.06667000        0.13801000  O
       atom_frac         0.13333000        0.06667000        0.13801000  O
       atom_frac         0.33333000        0.86667000        0.13801000  O
       atom_frac         0.93333000        0.26667000        0.13801000  O
       atom_frac         0.53333000        0.86667000        0.13801000  O
       atom_frac         0.33333000        0.26667000        0.13801000  O
       atom_frac         0.93333000        0.46667000        0.13801000  O
       atom_frac         0.13333000        0.86667000        0.13801000  O
       atom_frac         0.73333000        0.06667000        0.13801000  O
       atom_frac         0.93333000        0.66667000        0.13801000  O
       atom_frac         0.53333000        0.06667000        0.13801000  O
       atom_frac         0.13333000        0.26667000        0.13801000  O
       atom_frac         0.93333000        0.86667000        0.13801000  O
       atom_frac         0.66667000        0.73333000        0.16199000  Zn
       atom_frac         0.46667000        0.13333000        0.16199000  Zn
       atom_frac         0.06667000        0.93333000        0.16199000  Zn
       atom_frac         0.46667000        0.93333000        0.16199000  Zn
       atom_frac         0.66667000        0.93333000        0.16199000  Zn
       atom_frac         0.06667000        0.73333000        0.16199000  Zn
       atom_frac         0.26667000        0.73333000        0.16199000  Zn
       atom_frac         0.46667000        0.33333000        0.16199000  Zn
       atom_frac         0.86667000        0.13333000        0.16199000  Zn
       atom_frac         0.66667000        0.13333000        0.16199000  Zn
       atom_frac         0.26667000        0.33333000        0.16199000  Zn
       atom_frac         0.06667000        0.33333000        0.16199000  Zn
       atom_frac         0.86667000        0.33333000        0.16199000  Zn
       atom_frac         0.06667000        0.13333000        0.16199000  Zn
       atom_frac         0.66667000        0.33333000        0.16199000  Zn
       atom_frac         0.46667000        0.53333000        0.16199000  Zn
       atom_frac         0.86667000        0.53333000        0.16199000  Zn
       atom_frac         0.26667000        0.93333000        0.16199000  Zn
       atom_frac         0.26667000        0.13333000        0.16199000  Zn
       atom_frac         0.66667000        0.53333000        0.16199000  Zn
       atom_frac         0.86667000        0.73333000        0.16199000  Zn
       atom_frac         0.26667000        0.53333000        0.16199000  Zn
       atom_frac         0.46667000        0.73333000        0.16199000  Zn
       atom_frac         0.06667000        0.53333000        0.16199000  Zn
       atom_frac         0.86667000        0.93333000        0.16199000  Zn
       atom_frac         0.46667000        0.53333000        0.23801000  O
       atom_frac         0.26667000        0.33333000        0.23801000  O
       atom_frac         0.06667000        0.73333000        0.23801000  O
       atom_frac         0.46667000        0.13333000        0.23801000  O
       atom_frac         0.86667000        0.13333000        0.23801000  O
       atom_frac         0.66667000        0.33333000        0.23801000  O
       atom_frac         0.26667000        0.73333000        0.23801000  O
       atom_frac         0.46667000        0.73333000        0.23801000  O
       atom_frac         0.26667000        0.13333000        0.23801000  O
       atom_frac         0.86667000        0.33333000        0.23801000  O
       atom_frac         0.06667000        0.93333000        0.23801000  O
       atom_frac         0.66667000        0.53333000        0.23801000  O
       atom_frac         0.06667000        0.33333000        0.23801000  O
       atom_frac         0.46667000        0.33333000        0.23801000  O
       atom_frac         0.86667000        0.53333000        0.23801000  O
       atom_frac         0.46667000        0.93333000        0.23801000  O
       atom_frac         0.26667000        0.53333000        0.23801000  O
       atom_frac         0.66667000        0.73333000        0.23801000  O
       atom_frac         0.26667000        0.93333000        0.23801000  O
       atom_frac         0.86667000        0.73333000        0.23801000  O
       atom_frac         0.06667000        0.53333000        0.23801000  O
       atom_frac         0.06667000        0.13333000        0.23801000  O
       atom_frac         0.66667000        0.13333000        0.23801000  O
       atom_frac         0.66667000        0.93333000        0.23801000  O
       atom_frac         0.86667000        0.93333000        0.23801000  O
       atom_frac         0.93333000        0.06667000        0.26199000  Zn
       atom_frac         0.13333000        0.06667000        0.26199000  Zn
       atom_frac         0.53333000        0.86667000        0.26199000  Zn
       atom_frac         0.73333000        0.46667000        0.26199000  Zn
       atom_frac         0.33333000        0.66667000        0.26199000  Zn
       atom_frac         0.13333000        0.66667000        0.26199000  Zn
       atom_frac         0.93333000        0.26667000        0.26199000  Zn
       atom_frac         0.53333000        0.46667000        0.26199000  Zn
       atom_frac         0.53333000        0.06667000        0.26199000  Zn
       atom_frac         0.13333000        0.46667000        0.26199000  Zn
       atom_frac         0.73333000        0.66667000        0.26199000  Zn
       atom_frac         0.73333000        0.06667000        0.26199000  Zn
       atom_frac         0.93333000        0.46667000        0.26199000  Zn
       atom_frac         0.33333000        0.46667000        0.26199000  Zn
       atom_frac         0.13333000        0.86667000        0.26199000  Zn
       atom_frac         0.33333000        0.26667000        0.26199000  Zn
       atom_frac         0.53333000        0.66667000        0.26199000  Zn
       atom_frac         0.73333000        0.86667000        0.26199000  Zn
       atom_frac         0.93333000        0.66667000        0.26199000  Zn
       atom_frac         0.33333000        0.86667000        0.26199000  Zn
       atom_frac         0.73333000        0.26667000        0.26199000  Zn
       atom_frac         0.53333000        0.26667000        0.26199000  Zn
       atom_frac         0.33333000        0.06667000        0.26199000  Zn
       atom_frac         0.13333000        0.26667000        0.26199000  Zn
       atom_frac         0.93333000        0.86667000        0.26199000  Zn
       atom_frac         0.73333000        0.06667000        0.33801000  O
       atom_frac         0.53333000        0.26667000        0.33801000  O
       atom_frac         0.53333000        0.66667000        0.33801000  O
       atom_frac         0.93333000        0.26667000        0.33801000  O
       atom_frac         0.73333000        0.66667000        0.33801000  O
       atom_frac         0.33333000        0.66667000        0.33801000  O
       atom_frac         0.33333000        0.06667000        0.33801000  O
       atom_frac         0.33333000        0.46667000        0.33801000  O
       atom_frac         0.33333000        0.26667000        0.33801000  O
       atom_frac         0.73333000        0.26667000        0.33801000  O
       atom_frac         0.93333000        0.46667000        0.33801000  O
       atom_frac         0.53333000        0.06667000        0.33801000  O
       atom_frac         0.73333000        0.86667000        0.33801000  O
       atom_frac         0.13333000        0.66667000        0.33801000  O
       atom_frac         0.53333000        0.86667000        0.33801000  O
       atom_frac         0.53333000        0.46667000        0.33801000  O
       atom_frac         0.13333000        0.06667000        0.33801000  O
       atom_frac         0.93333000        0.66667000        0.33801000  O
       atom_frac         0.13333000        0.26667000        0.33801000  O
       atom_frac         0.73333000        0.46667000        0.33801000  O
       atom_frac         0.93333000        0.06667000        0.33801000  O
       atom_frac         0.33333000        0.86667000        0.33801000  O
       atom_frac         0.13333000        0.86667000        0.33801000  O
       atom_frac         0.13333000        0.46667000        0.33801000  O
       atom_frac         0.93333000        0.86667000        0.33801000  O
       atom_frac         0.86667000        0.33333000        0.36199000  Zn
       atom_frac         0.66667000        0.33333000        0.36199000  Zn
       atom_frac         0.46667000        0.93333000        0.36199000  Zn
       atom_frac         0.26667000        0.73333000        0.36199000  Zn
       atom_frac         0.26667000        0.53333000        0.36199000  Zn
       atom_frac         0.06667000        0.33333000        0.36199000  Zn
       atom_frac         0.66667000        0.93333000        0.36199000  Zn
       atom_frac         0.46667000        0.33333000        0.36199000  Zn
       atom_frac         0.86667000        0.53333000        0.36199000  Zn
       atom_frac         0.06667000        0.93333000        0.36199000  Zn
       atom_frac         0.06667000        0.73333000        0.36199000  Zn
       atom_frac         0.66667000        0.53333000        0.36199000  Zn
       atom_frac         0.46667000        0.73333000        0.36199000  Zn
       atom_frac         0.66667000        0.13333000        0.36199000  Zn
       atom_frac         0.06667000        0.13333000        0.36199000  Zn
       atom_frac         0.86667000        0.13333000        0.36199000  Zn
       atom_frac         0.86667000        0.73333000        0.36199000  Zn
       atom_frac         0.46667000        0.13333000        0.36199000  Zn
       atom_frac         0.26667000        0.13333000        0.36199000  Zn
       atom_frac         0.06667000        0.53333000        0.36199000  Zn
       atom_frac         0.26667000        0.93333000        0.36199000  Zn
       atom_frac         0.66667000        0.73333000        0.36199000  Zn
       atom_frac         0.46667000        0.53333000        0.36199000  Zn
       atom_frac         0.26667000        0.33333000        0.36199000  Zn
       atom_frac         0.86667000        0.93333000        0.36199000  Zn
       atom_frac         0.26667000        0.73333000        0.43801000  O
       atom_frac         0.66667000        0.93333000        0.43801000  O
       atom_frac         0.66667000        0.13333000        0.43801000  O
       atom_frac         0.66667000        0.53333000        0.43801000  O
       atom_frac         0.06667000        0.13333000        0.43801000  O
       atom_frac         0.06667000        0.33333000        0.43801000  O
       atom_frac         0.86667000        0.53333000        0.43801000  O
       atom_frac         0.46667000        0.53333000        0.43801000  O
       atom_frac         0.26667000        0.13333000        0.43801000  O
       atom_frac         0.06667000        0.73333000        0.43801000  O
       atom_frac         0.06667000        0.93333000        0.43801000  O
       atom_frac         0.86667000        0.13333000        0.43801000  O
       atom_frac         0.46667000        0.93333000        0.43801000  O
       atom_frac         0.46667000        0.33333000        0.43801000  O
       atom_frac         0.66667000        0.73333000        0.43801000  O
       atom_frac         0.86667000        0.73333000        0.43801000  O
       atom_frac         0.66667000        0.33333000        0.43801000  O
       atom_frac         0.26667000        0.33333000        0.43801000  O
       atom_frac         0.06667000        0.53333000        0.43801000  O
       atom_frac         0.46667000        0.13333000        0.43801000  O
       atom_frac         0.26667000        0.53333000        0.43801000  O
       atom_frac         0.86667000        0.33333000        0.43801000  O
       atom_frac         0.46667000        0.73333000        0.43801000  O
       atom_frac         0.26667000        0.93333000        0.43801000  O
       atom_frac         0.86667000        0.93333000        0.43801000  O
       atom_frac         0.93333000        0.46667000        0.46199000  Zn
[...]
       atom_frac         0.26667000        0.33333000        0.16199000  Zn
       atom_frac         0.06667000        0.33333000        0.16199000  Zn
       atom_frac         0.86667000        0.33333000        0.16199000  Zn
       atom_frac         0.06667000        0.13333000        0.16199000  Zn
       atom_frac         0.66667000        0.33333000        0.16199000  Zn
       atom_frac         0.46667000        0.53333000        0.16199000  Zn
       atom_frac         0.86667000        0.53333000        0.16199000  Zn
       atom_frac         0.26667000        0.93333000        0.16199000  Zn
       atom_frac         0.26667000        0.13333000        0.16199000  Zn
       atom_frac         0.66667000        0.53333000        0.16199000  Zn
       atom_frac         0.86667000        0.73333000        0.16199000  Zn
       atom_frac         0.26667000        0.53333000        0.16199000  Zn
       atom_frac         0.46667000        0.73333000        0.16199000  Zn
       atom_frac         0.06667000        0.53333000        0.16199000  Zn
       atom_frac         0.86667000        0.93333000        0.16199000  Zn
       atom_frac         0.46667000        0.53333000        0.23801000  O
       atom_frac         0.26667000        0.33333000        0.23801000  O
       atom_frac         0.06667000        0.73333000        0.23801000  O
       atom_frac         0.46667000        0.13333000        0.23801000  O
       atom_frac         0.86667000        0.13333000        0.23801000  O
       atom_frac         0.66667000        0.33333000        0.23801000  O
       atom_frac         0.26667000        0.73333000        0.23801000  O
       atom_frac         0.46667000        0.73333000        0.23801000  O
       atom_frac         0.26667000        0.13333000        0.23801000  O
       atom_frac         0.86667000        0.33333000        0.23801000  O
       atom_frac         0.06667000        0.93333000        0.23801000  O
       atom_frac         0.66667000        0.53333000        0.23801000  O
       atom_frac         0.06667000        0.33333000        0.23801000  O
       atom_frac         0.46667000        0.33333000        0.23801000  O
       atom_frac         0.86667000        0.53333000        0.23801000  O
       atom_frac         0.46667000        0.93333000        0.23801000  O
       atom_frac         0.26667000        0.53333000        0.23801000  O
       atom_frac         0.66667000        0.73333000        0.23801000  O
       atom_frac         0.26667000        0.93333000        0.23801000  O
       atom_frac         0.86667000        0.73333000        0.23801000  O
       atom_frac         0.06667000        0.53333000        0.23801000  O
       atom_frac         0.06667000        0.13333000        0.23801000  O
       atom_frac         0.66667000        0.13333000        0.23801000  O
       atom_frac         0.66667000        0.93333000        0.23801000  O
       atom_frac         0.86667000        0.93333000        0.23801000  O
       atom_frac         0.93333000        0.06667000        0.26199000  Zn
       atom_frac         0.13333000        0.06667000        0.26199000  Zn
       atom_frac         0.53333000        0.86667000        0.26199000  Zn
       atom_frac         0.73333000        0.46667000        0.26199000  Zn
       atom_frac         0.33333000        0.66667000        0.26199000  Zn
       atom_frac         0.13333000        0.66667000        0.26199000  Zn
       atom_frac         0.93333000        0.26667000        0.26199000  Zn
       atom_frac         0.53333000        0.46667000        0.26199000  Zn
       atom_frac         0.53333000        0.06667000        0.26199000  Zn
       atom_frac         0.13333000        0.46667000        0.26199000  Zn
       atom_frac         0.73333000        0.66667000        0.26199000  Zn
       atom_frac         0.73333000        0.06667000        0.26199000  Zn
       atom_frac         0.93333000        0.46667000        0.26199000  Zn
       atom_frac         0.33333000        0.46667000        0.26199000  Zn
       atom_frac         0.13333000        0.86667000        0.26199000  Zn
       atom_frac         0.33333000        0.26667000        0.26199000  Zn
       atom_frac         0.53333000        0.66667000        0.26199000  Zn
       atom_frac         0.73333000        0.86667000        0.26199000  Zn
       atom_frac         0.93333000        0.66667000        0.26199000  Zn
       atom_frac         0.33333000        0.86667000        0.26199000  Zn
       atom_frac         0.73333000        0.26667000        0.26199000  Zn
       atom_frac         0.53333000        0.26667000        0.26199000  Zn
       atom_frac         0.33333000        0.06667000        0.26199000  Zn
       atom_frac         0.13333000        0.26667000        0.26199000  Zn
       atom_frac         0.93333000        0.86667000        0.26199000  Zn
       atom_frac         0.73333000        0.06667000        0.33801000  O
       atom_frac         0.53333000        0.26667000        0.33801000  O
       atom_frac         0.53333000        0.66667000        0.33801000  O
       atom_frac         0.93333000        0.26667000        0.33801000  O
       atom_frac         0.73333000        0.66667000        0.33801000  O
       atom_frac         0.33333000        0.66667000        0.33801000  O
       atom_frac         0.33333000        0.06667000        0.33801000  O
       atom_frac         0.33333000        0.46667000        0.33801000  O
       atom_frac         0.33333000        0.26667000        0.33801000  O
       atom_frac         0.73333000        0.26667000        0.33801000  O
       atom_frac         0.93333000        0.46667000        0.33801000  O
       atom_frac         0.53333000        0.06667000        0.33801000  O
       atom_frac         0.73333000        0.86667000        0.33801000  O
       atom_frac         0.13333000        0.66667000        0.33801000  O
       atom_frac         0.53333000        0.86667000        0.33801000  O
       atom_frac         0.53333000        0.46667000        0.33801000  O
       atom_frac         0.13333000        0.06667000        0.33801000  O
       atom_frac         0.93333000        0.66667000        0.33801000  O
       atom_frac         0.13333000        0.26667000        0.33801000  O
       atom_frac         0.73333000        0.46667000        0.33801000  O
       atom_frac         0.93333000        0.06667000        0.33801000  O
       atom_frac         0.33333000        0.86667000        0.33801000  O
       atom_frac         0.13333000        0.86667000        0.33801000  O
       atom_frac         0.13333000        0.46667000        0.33801000  O
       atom_frac         0.93333000        0.86667000        0.33801000  O
       atom_frac         0.86667000        0.33333000        0.36199000  Zn
       atom_frac         0.66667000        0.33333000        0.36199000  Zn
       atom_frac         0.46667000        0.93333000        0.36199000  Zn
       atom_frac         0.26667000        0.73333000        0.36199000  Zn
       atom_frac         0.26667000        0.53333000        0.36199000  Zn
       atom_frac         0.06667000        0.33333000        0.36199000  Zn
       atom_frac         0.66667000        0.93333000        0.36199000  Zn
       atom_frac         0.46667000        0.33333000        0.36199000  Zn
       atom_frac         0.86667000        0.53333000        0.36199000  Zn
       atom_frac         0.06667000        0.93333000        0.36199000  Zn
       atom_frac         0.06667000        0.73333000        0.36199000  Zn
       atom_frac         0.66667000        0.53333000        0.36199000  Zn
       atom_frac         0.46667000        0.73333000        0.36199000  Zn
       atom_frac         0.66667000        0.13333000        0.36199000  Zn
       atom_frac         0.06667000        0.13333000        0.36199000  Zn
       atom_frac         0.86667000        0.13333000        0.36199000  Zn
       atom_frac         0.86667000        0.73333000        0.36199000  Zn
       atom_frac         0.46667000        0.13333000        0.36199000  Zn
       atom_frac         0.26667000        0.13333000        0.36199000  Zn
       atom_frac         0.06667000        0.53333000        0.36199000  Zn
       atom_frac         0.26667000        0.93333000        0.36199000  Zn
       atom_frac         0.66667000        0.73333000        0.36199000  Zn
       atom_frac         0.46667000        0.53333000        0.36199000  Zn
       atom_frac         0.26667000        0.33333000        0.36199000  Zn
       atom_frac         0.86667000        0.93333000        0.36199000  Zn
       atom_frac         0.26667000        0.73333000        0.43801000  O
       atom_frac         0.66667000        0.93333000        0.43801000  O
       atom_frac         0.66667000        0.13333000        0.43801000  O
       atom_frac         0.66667000        0.53333000        0.43801000  O
       atom_frac         0.06667000        0.13333000        0.43801000  O
       atom_frac         0.06667000        0.33333000        0.43801000  O
       atom_frac         0.86667000        0.53333000        0.43801000  O
       atom_frac         0.46667000        0.53333000        0.43801000  O
       atom_frac         0.26667000        0.13333000        0.43801000  O
       atom_frac         0.06667000        0.73333000        0.43801000  O
       atom_frac         0.06667000        0.93333000        0.43801000  O
       atom_frac         0.86667000        0.13333000        0.43801000  O
       atom_frac         0.46667000        0.93333000        0.43801000  O
       atom_frac         0.46667000        0.33333000        0.43801000  O
       atom_frac         0.66667000        0.73333000        0.43801000  O
       atom_frac         0.86667000        0.73333000        0.43801000  O
       atom_frac         0.66667000        0.33333000        0.43801000  O
       atom_frac         0.26667000        0.33333000        0.43801000  O
       atom_frac         0.06667000        0.53333000        0.43801000  O
       atom_frac         0.46667000        0.13333000        0.43801000  O
       atom_frac         0.26667000        0.53333000        0.43801000  O
       atom_frac         0.86667000        0.33333000        0.43801000  O
       atom_frac         0.46667000        0.73333000        0.43801000  O
       atom_frac         0.26667000        0.93333000        0.43801000  O
       atom_frac         0.86667000        0.93333000        0.43801000  O
       atom_frac         0.93333000        0.46667000        0.46199000  Zn
       atom_frac         0.13333000        0.46667000        0.46199000  Zn
       atom_frac         0.93333000        0.06667000        0.46199000  Zn
       atom_frac         0.53333000        0.66667000        0.46199000  Zn
       atom_frac         0.33333000        0.26667000        0.46199000  Zn
       atom_frac         0.13333000        0.66667000        0.46199000  Zn
       atom_frac         0.13333000        0.26667000        0.46199000  Zn
       atom_frac         0.53333000        0.46667000        0.46199000  Zn
       atom_frac         0.93333000        0.66667000        0.46199000  Zn
       atom_frac         0.73333000        0.06667000        0.46199000  Zn
       atom_frac         0.33333000        0.06667000        0.46199000  Zn
       atom_frac         0.93333000        0.26667000        0.46199000  Zn
       atom_frac         0.73333000        0.46667000        0.46199000  Zn
       atom_frac         0.73333000        0.86667000        0.46199000  Zn
       atom_frac         0.53333000        0.26667000        0.46199000  Zn
       atom_frac         0.33333000        0.66667000        0.46199000  Zn
       atom_frac         0.53333000        0.06667000        0.46199000  Zn
       atom_frac         0.93333000        0.86667000        0.46199000  Zn
       atom_frac         0.93333000        0.46667000        0.51919000  Pd
       atom_frac         0.03333000        0.36667000        0.51919000  Pd
       atom_frac         0.13333000        0.26667000        0.51919000  Pd
       atom_frac         0.23333000        0.16667000        0.51919000  Pd
       atom_frac         0.33333000        0.06667000        0.51919000  Pd
       atom_frac         0.43333000        0.96667000        0.51919000  Pd
       atom_frac         0.53333000        0.86667000        0.51919000  Pd
       atom_frac         0.63333000        0.76667000        0.51919000  Pd
       atom_frac         0.73333000        0.66667000        0.51919000  Pd
       atom_frac         0.83333000        0.56667000        0.51919000  Pd
 ------------------------------------------------------------------------
  @ DRIVER MODE: Message from server: STATUS      
  @ DRIVER MODE: Message from server: GETFORCE    
  @ DRIVER MODE: Returning v,forces,stress 

------------------------------------------------------------------------------
  Final output of selected total energy values:

  The following output summarizes some interesting total energy values
  at the end of a run (AFTER all relaxation, molecular dynamics, etc.).

  | Total energy of the DFT / Hartree-Fock s.c.f. calculation      :       -7435790.298816474 eV
  | Final zero-broadening corrected energy (caution - metals only) :       -7435790.326959653 eV
  | For reference only, the value of 1 Hartree used in FHI-aims is :             27.211384500 eV
  | For reference only, the overall average (free atom contribution
  | + realspace contribution) of the electrostatic potential after
  | s.c.f. convergence is                                          :             -7.585748665 eV

  Before relying on these values, please be sure to understand exactly which
  total energy value is referred to by a given number. Different objects may
  all carry the same name 'total energy'. Definitions:

  Total energy of the DFT / Hartree-Fock s.c.f. calculation:
  | Note that this energy does not include ANY quantities calculated after the
  | s.c.f. cycle, in particular not ANY RPA, MP2, etc. many-body perturbation terms.

  Final zero-broadening corrected energy:
  | For metallic systems only, a broadening of the occupation numbers at the Fermi
  | level can be extrapolated back to zero broadening by an electron-gas inspired
  | formula. For all systems that are not real metals, this value can be
  | meaningless and should be avoided.

------------------------------------------------------------------------------
  Methods described in the following list of references were used in this FHI-aims run.
  If you publish the results, please make sure to cite these reference if they apply.
  FHI-aims is an academic code, and for our developers (often, Ph.D. students
  and postdocs), scientific credit in the community is essential.
  Thank you for helping us!

  For any use of FHI-aims, please cite:

    Volker Blum, Ralf Gehrke, Felix Hanke, Paula Havu, Ville Havu,
    Xinguo Ren, Karsten Reuter, and Matthias Scheffler
    'Ab initio molecular simulations with numeric atom-centered orbitals'
    Computer Physics Communications 180, 2175-2196 (2009)
    http://doi.org/10.1016/j.cpc.2009.06.022


  The provided symmetry information was generated with SPGlib:

    Atsushi Togo, Yusuke Seto, Dimitar Pashov
    SPGlib 1.7.3 obtained from http://spglib.sourceforge.net
    Copyright (C) 2008 Atsushi Togo


  The ELSI infrastructure was used in your run to solve the Kohn-Sham electronic structure.
  Please check out http://elsi-interchange.org to learn more.
  If scalability is important for your project, please acknowledge ELSI by citing:

    V. W-z. Yu, F. Corsetti, A. Garcia, W. P. Huhn, M. Jacquelin, W. Jia,
    B. Lange, L. Lin, J. Lu, W. Mi, A. Seifitokaldani, A. Vazquez-Mayagoitia,
    C. Yang, H. Yang, and V. Blum
    'ELSI: A unified software interface for Kohn-Sham electronic structure solvers'
    Computer Physics Communications 222, 267-285 (2018).
    http://doi.org/10.1016/j.cpc.2017.09.007


  For the real-space grid partitioning and parallelization used in this calculation, please cite:

    Ville Havu, Volker Blum, Paula Havu, and Matthias Scheffler,
    'Efficient O(N) integration for all-electron electronic structure calculation'
    'using numerically tabulated basis functions'
    Journal of Computational Physics 228, 8367-8379 (2009).
    http://doi.org/10.1016/j.jcp.2009.08.008

  Of course, there are many other important community references, e.g., those cited in the
  above references. Our list is limited to references that describe implementations in the
  FHI-aims code. The reason is purely practical (length of this list) - please credit others as well.

 * A warning was issued further up regarding the accuracy of onsite integrals.
   An integral with a negative eigenvalue was among the flagged integrals.
   In most standard situations, this warning is probably harmless.
   If needed, this can be verified by adjusting the radial_multiplier flag.

   One or more s.c.f. cycles took more than 50 s.c.f. iterations.
   It might be worth adjusting your convergence settings. For example,
   metals need a larger broadening and a smaller "charge_mix_param" value than semiconductors.

------------------------------------------------------------
          Leaving FHI-aims.
          Date     :  20231006, Time     :  161741.447

          Computational steps:
          | Number of self-consistency cycles          :          145
          | Number of SCF (re)initializations          :            2

          Detailed time accounting                     :  max(cpu_time)    wall_clock(cpu1)
          | Total time                                  :     8453.716 s        8482.385 s
          | Preparation time                            :        0.548 s           0.545 s
          | Boundary condition initalization            :        0.988 s           0.982 s
          | Grid partitioning                           :        6.715 s           6.725 s
          | Preloading free-atom quantities on grid     :        5.700 s           5.718 s
          | Free-atom superposition energy              :        1.270 s           1.273 s
          | Total time for integrations                 :     1337.193 s        1340.429 s
          | Total time for solution of K.-S. equations  :     3882.242 s        3893.874 s
          | Total time for density & force components   :     1936.429 s        1942.297 s
          | Total time for mixing & preconditioning     :      995.185 s         997.105 s
          | Total time for Hartree multipole update     :        2.312 s           2.400 s
          | Total time for Hartree multipole sum        :      258.675 s         259.309 s
          | Total time for total energy evaluation      :        0.703 s           0.313 s
          | Total time NSC force correction             :       18.092 s          18.222 s
          | Total time for scaled ZORA corrections      :        0.000 s           0.000 s

          Partial memory accounting:
          | Residual value for overall tracked memory usage across tasks:     0.000000 MB (should be 0.000000 MB)
          | Peak values for overall tracked memory usage:
          |   Minimum:      510.012 MB (on task  7 after allocating temp_ham_ovlp)
          |   Maximum:      513.391 MB (on task  0 after allocating temp_ham_ovlp)
          |   Average:      512.256 MB
          | Largest tracked array allocation:
          |   Minimum:       81.452 MB (overlap_matrix on task  0)
          |   Maximum:       81.452 MB (overlap_matrix on task  0)
          |   Average:       81.452 MB
          Note:  These values currently only include a subset of arrays which are explicitly tracked.
          The "true" memory usage will be greater.

          Have a nice day.
------------------------------------------------------------
