 running on   40 total cores
 distrk:  each k-point on   40 cores,    1 groups
 distr:  one band on    1 cores,   40 groups
 using from now: INCAR     
 vasp.5.4.4.18Apr17-6-g9f103f2a35 (build Jul 10 2018 00:17:35) complex          
  
 POSCAR found :  1 types and       4 ions
 scaLAPACK will be used

 ----------------------------------------------------------------------------- 
|                                                                             |
|           W    W    AA    RRRRR   N    N  II  N    N   GGGG   !!!           |
|           W    W   A  A   R    R  NN   N  II  NN   N  G    G  !!!           |
|           W    W  A    A  R    R  N N  N  II  N N  N  G       !!!           |
|           W WW W  AAAAAA  RRRRR   N  N N  II  N  N N  G  GGG   !            |
|           WW  WW  A    A  R   R   N   NN  II  N   NN  G    G                |
|           W    W  A    A  R    R  N    N  II  N    N   GGGG   !!!           |
|                                                                             |
|      For optimal performance we recommend to set                            |
|        NCORE= 4 - approx SQRT( number of cores)                             |
|      NCORE specifies how many cores store one orbital (NPAR=cpu/NCORE).     |
|      This setting can  greatly improve the performance of VASP for DFT.     |
|      The default,   NCORE=1            might be grossly inefficient         |
|      on modern multi-core architectures or massively parallel machines.     |
|      Do your own testing !!!!                                               |
|      Unfortunately you need to use the default for GW and RPA calculations. |
|      (for HF NCORE is supported but not extensively tested yet)             |
|                                                                             |
 ----------------------------------------------------------------------------- 

 LDA part: xc-table for Pade appr. of Perdew
 found WAVECAR, reading the header
 WAVECAR: different cutoff or change in lattice found
 POSCAR, INCAR and KPOINTS ok, starting setup
 FFT: planning ...
 reading WAVECAR
 the WAVECAR file was read successfully
 initial charge from wavefunction
 entering main loop
       N       E                     dE             d eps       ncg     rms          rms(c)
DAV:   1    -0.400748186662E+02   -0.40075E+02   -0.30758E+02 33440   0.116E+02    0.507E+01
RMM:   2    -0.206130412563E+02    0.19462E+02   -0.46727E+01 27760   0.447E+01    0.298E+01
RMM:   3    -0.206498656773E+02   -0.36824E-01   -0.15221E-01 33128   0.188E+00    0.206E+01
RMM:   4    -0.206686479070E+02   -0.18782E-01   -0.10238E-02 36412   0.412E-01    0.296E+00
RMM:   5    -0.206672483751E+02    0.13995E-02   -0.26457E-03 35488   0.310E-01    0.140E-01
RMM:   6    -0.206671443585E+02    0.10402E-03   -0.14732E-04 37066   0.537E-02    0.964E-02
RMM:   7    -0.206671201119E+02    0.24247E-04   -0.29634E-05 36924   0.284E-02    0.163E-01
RMM:   8    -0.206671187224E+02    0.13895E-05   -0.77171E-06 35214   0.131E-02    0.257E-02
RMM:   9    -0.206671189894E+02   -0.26690E-06   -0.79774E-07 39949   0.319E-03    0.128E-02
RMM:  10    -0.206671190777E+02   -0.88301E-07   -0.51055E-08 34591   0.117E-03    0.209E-03
RMM:  11    -0.206671190595E+02    0.18141E-07   -0.15532E-08 28374   0.749E-04    0.729E-04
RMM:  12    -0.206671190363E+02    0.23228E-07   -0.30268E-09 24544   0.345E-04    0.690E-05
RMM:  13    -0.206671190393E+02   -0.30577E-08   -0.87880E-10 21842   0.171E-04
   1 F= -.22704275E+02 E0= -.22596969E+02  d E =-.214610E+00  mag=     0.0000
 writing wavefunctions
