------------------------------------------------------------
          Invoking FHI-aims ...

          When using FHI-aims, please cite the following reference:

            Volker Blum, Ralf Gehrke, Felix Hanke, Paula Havu,
            Ville Havu, Xinguo Ren, Karsten Reuter, and Matthias Scheffler,
            'Ab Initio Molecular Simulations with Numeric Atom-Centered Orbitals',
            Computer Physics Communications 180, 2175-2196 (2009)

          In addition, many other developments in FHI-aims are likely important for
          your particular application. If so, please cite them. A partial list of references
          is written at the end of this file. Thank you for giving credit to the authors
          of these developments.

          For general information about FHI-aims please find us at

            https://fhi-aims.org

          Online tutorials can be found at

            https://fhi-aims-club.gitlab.io/tutorials/tutorials-overview/

          For any questions about FHI-aims, please visit our slack channel at

            https://fhi-aims.slack.com

          and our main development and support site at

            https://aims-git.rz-berlin.mpg.de .

          The latter site, in particular, has a wiki to collect information, as well
          as an issue tracker to log discussions, suggest improvements, and report issues
          or bugs. https://aims-git.rz-berlin.mpg.de is also the main development site
          of the project and all new and updated code versions can be obtained there.
          Please send an email to aims-coordinators@fhi-berlin.mpg.de and we will add
          you to these sites. They are for you and everyone is welcome there.

------------------------------------------------------------



  Date     :  20231127, Time     :  104935.235
  Time zero on CPU 1             :   0.579518000000000E+00  s.
  Internal wall clock time zero  :           470314175.235  s.

  FHI-aims created a unique identifier for this run for later identification
  aims_uuid : A7794E52-EBE1-444A-A435-2ECC5D34E0A6

  Build configuration of the current instance of FHI-aims
  -------------------------------------------------------
  FHI-aims version      : 230612
  Commit number         : 0c86b0d53
  CMake host system     : Linux-3.10.0-1160.80.1.el7.x86_64
  CMake version         : 3.24.2
  Fortran compiler      : /apps/compilers/intel/2018.2/compilers_and_libraries_2018/linux/mpi/intel64/bin/mpif90 (Intel) version 18.0.2.20180210
  Fortran compiler flags: -O3 -ip -fp-model precise
  C compiler            : /apps/compilers/intel/2018.2/compilers_and_libraries_2018/linux/bin/intel64/icc (Intel) version 18.0.2.20180210
  C compiler flags      : -O3 -ip -fp-model precise -std=gnu99
  HIP compiler          :
  HIP compiler flags    :
  HIP GPU arch          :
  ELPA2 kernel          : AVX2
  Using MPI
  Using ScaLAPACK
  Using LibXC
  Using i-PI
  Using RLSY
  Linking against: /apps/compilers/intel/2018.2/compilers_and_libraries_2018/linux/mkl/lib/intel64/libmkl_intel_lp64.so
                   /apps/compilers/intel/2018.2/compilers_and_libraries_2018/linux/mkl/lib/intel64/libmkl_intel_thread.so
                   /apps/compilers/intel/2018.2/compilers_and_libraries_2018/linux/mkl/lib/intel64/libmkl_core.so
                   /apps/compilers/intel/2018.2/compilers_and_libraries_2018/linux/mkl/lib/intel64/libmkl_blacs_intelmpi_lp64.so
                   /apps/compilers/intel/2018.2/compilers_and_libraries_2018/linux/mkl/lib/intel64/libmkl_scalapack_lp64.so
                   /usr/lib64/libpthread.so

  Using       40 parallel tasks.
  Task        0 on host ccs0135 reporting.
  Task        1 on host ccs0135 reporting.
  Task        2 on host ccs0135 reporting.
  Task        3 on host ccs0135 reporting.
  Task        4 on host ccs0135 reporting.
  Task        5 on host ccs0135 reporting.
  Task        6 on host ccs0135 reporting.
  Task        7 on host ccs0135 reporting.
  Task        8 on host ccs0135 reporting.
  Task        9 on host ccs0135 reporting.
  Task       10 on host ccs0135 reporting.
  Task       11 on host ccs0135 reporting.
  Task       12 on host ccs0135 reporting.
  Task       13 on host ccs0135 reporting.
  Task       14 on host ccs0135 reporting.
  Task       15 on host ccs0135 reporting.
  Task       16 on host ccs0135 reporting.
  Task       17 on host ccs0135 reporting.
  Task       18 on host ccs0135 reporting.
  Task       19 on host ccs0135 reporting.
  Task       20 on host ccs0135 reporting.
  Task       21 on host ccs0135 reporting.
  Task       22 on host ccs0135 reporting.
  Task       23 on host ccs0135 reporting.
  Task       24 on host ccs0135 reporting.
  Task       25 on host ccs0135 reporting.
  Task       26 on host ccs0135 reporting.
  Task       27 on host ccs0135 reporting.
  Task       28 on host ccs0135 reporting.
  Task       29 on host ccs0135 reporting.
  Task       30 on host ccs0135 reporting.
  Task       31 on host ccs0135 reporting.
  Task       32 on host ccs0135 reporting.
  Task       33 on host ccs0135 reporting.
  Task       34 on host ccs0135 reporting.
  Task       35 on host ccs0135 reporting.
  Task       36 on host ccs0135 reporting.
  Task       37 on host ccs0135 reporting.
  Task       38 on host ccs0135 reporting.
  Task       39 on host ccs0135 reporting.

  Obtaining array dimensions for all initial allocations:
  
  -----------------------------------------------------------------------
  Parsing control.in (first pass over file, find array dimensions only).
  The contents of control.in will be repeated verbatim below
  unless switched off by setting 'verbatim_writeout .false.' .
  in the first line of control.in .
  -----------------------------------------------------------------------
  
  #===============================================================================
  # FHI-aims file: ./control.in
  # Created using the Atomic Simulation Environment (ASE)
  # Mon Nov 27 10:49:33 2023
  #===============================================================================
  xc_pre                             pbe 15
  spin                               none
  relativistic                       atomic_zora scalar
  sc_accuracy_etot                   0.001
  sc_accuracy_eev                    0.001
  sc_accuracy_rho                    1e-06
  sc_accuracy_forces                 0.0001
  override_warning_libxc             true
  xc                                 libxc MGGA_X_MBEEF+GGA_C_PBE_SOL
  use_dipole_correction              .true.
  k_grid                             3 3 1
  use_pimd_wrapper                   ccs0135 17117
  #===============================================================================
  
  ################################################################################
  #
  #  FHI-aims code project
  #  VB, Fritz-Haber Institut, 2009
  #
  #  Suggested "light" defaults for O atom (to be pasted into control.in file)
  #  Be sure to double-check any results obtained with these settings for post-processing,
  #  e.g., with the "tight" defaults and larger basis sets.
  #
  ################################################################################
    species        O
  #     global species definitions
      nucleus             8
      mass                15.9994
  #
      l_hartree           4
  #
      cut_pot             3.5  1.5  1.0
      basis_dep_cutoff    1e-4
  #
      radial_base         36 5.0
      radial_multiplier   1
       angular_grids specified
        division   0.2659   50
        division   0.4451  110
        division   0.6052  194
        division   0.7543  302
  #      division   0.8014  434
  #      division   0.8507  590
  #      division   0.8762  770
  #      division   0.9023  974
  #      division   1.2339 1202
  #      outer_grid 974
        outer_grid 302
  ################################################################################
  #
  #  Definition of "minimal" basis
  #
  ################################################################################
  #     valence basis states
      valence      2  s   2.
      valence      2  p   4.
  #     ion occupancy
      ion_occ      2  s   1.
      ion_occ      2  p   3.
  ################################################################################
  #
  #  Suggested additional basis functions. For production calculations,
  #  uncomment them one after another (the most important basis functions are
  #  listed first).
  #
  #  Constructed for dimers: 1.0 A, 1.208 A, 1.5 A, 2.0 A, 3.0 A
  #
  ################################################################################
  #  "First tier" - improvements: -699.05 meV to -159.38 meV
       hydro 2 p 1.8
       hydro 3 d 7.6
       hydro 3 s 6.4
  #  "Second tier" - improvements: -49.91 meV to -5.39 meV
  #     hydro 4 f 11.6
  #     hydro 3 p 6.2
  #     hydro 3 d 5.6
  #     hydro 5 g 17.6
  #     hydro 1 s 0.75
  #  "Third tier" - improvements: -2.83 meV to -0.50 meV
  #     ionic 2 p auto
  #     hydro 4 f 10.8
  #     hydro 4 d 4.7
  #     hydro 2 s 6.8
  #  "Fourth tier" - improvements: -0.40 meV to -0.12 meV
  #     hydro 3 p 5
  #     hydro 3 s 3.3
  #     hydro 5 g 15.6
  #     hydro 4 f 17.6
  #     hydro 4 d 14
  # Further basis functions - -0.08 meV and below
  #     hydro 3 s 2.1
  #     hydro 4 d 11.6
  #     hydro 3 p 16
  #     hydro 2 s 17.2
  ################################################################################
  #
  #  FHI-aims code project
  #  VB, Fritz-Haber Institut, 2010
  #
  #  Suggested "light" defaults for Zn atom (to be pasted into control.in file)
  #  Be sure to double-check any results obtained with these settings for post-processing,
  #  e.g., with the "tight" defaults and larger basis sets.
  #
  ################################################################################
    species        Zn
  #     global species definitions
      nucleus             30
      mass                65.409
  #
      l_hartree           4
  #
      cut_pot             3.5          1.5  1.0
      basis_dep_cutoff    1e-4
  #
      radial_base         53 5.0
      radial_multiplier   1
      angular_grids       specified
        division   0.5114   50
        division   0.8989  110
        division   1.2692  194
        division   1.6226  302
  #      division   1.7854  434
  #      division   2.0877  590
  #      division   2.1298  770
  #      division   2.1730  974
  #      division   2.5659 1202
        outer_grid  302
  ################################################################################
  #
  #  Definition of "minimal" basis
  #
  ################################################################################
  #     valence basis states
      valence      4  s   2.
      valence      3  p   6.
      valence      3  d  10.
  #     ion occupancy
      ion_occ      4  s   1.
      ion_occ      3  p   6.
      ion_occ      3  d   9.
  ################################################################################
  #
  #  Suggested additional basis functions. For production calculations,
  #  uncomment them one after another (the most important basis functions are
  #  listed first).
  #
  #  Constructed for dimers: 2.00 A, 2.30 A, 2.85 A, 3.50 A, 4.25 A
  #
  ################################################################################
  #  "First tier" - improvements: -270.82 meV to -12.81 meV
       hydro 2 p 1.7
       hydro 3 s 2.9
       hydro 4 p 5.4
       hydro 4 f 7.8
       hydro 3 d 4.5
  #  "Second tier" - improvements: -3.35 meV to -0.82 meV
  #     hydro 5 g 10.8
  #     hydro 2 p 2.4
  #     hydro 3 s 6.2
  #     hydro 3 d 3
  #  "Third tier" - improvements: -0.61 meV to -0.12 meV
  #     hydro 6 h 15.2
  #     ionic 4 p auto
  #     hydro 5 s 12.8
  #     hydro 4 f 5.4
  #     hydro 4 d 7
  #  Further functions - improvements: -0.16 meV and below
  #     hydro 4 f 20
  #     hydro 3 p 2.2
  #     hydro 5 f 6.4
  #     hydro 5 g 8
  ################################################################################
  #
  #  FHI-aims code project
  #  VB, Fritz-Haber Institut, 2009
  #
  #  Suggested "light" defaults for Pd atom (to be pasted into control.in file)
  #  Be sure to double-check any results obtained with these settings for post-processing,
  #  e.g., with the "tight" defaults and larger basis sets.
  #
  ################################################################################
    species        Pd
  #     global species definitions
      nucleus             46
      mass                106.42
  #
      l_hartree           4
  #
      cut_pot             3.5  1.5  1.0
      basis_dep_cutoff    1e-4
  #
      radial_base         62 5.0
      radial_multiplier   1
      angular_grids specified
        division   0.5211   50
        division   0.9161  110
        division   1.2296  194
        division   1.5678  302
  #      division   1.9785  434
  #      division   2.0474  590
  #      division   2.1195  770
  #      division   2.1568  974
  #      division   2.7392 1202
  #       outer_grid  974
         outer_grid  302
  ################################################################################
  #
  #  Definition of "minimal" basis
  #
  ################################################################################
  #     valence basis states
      valence      5  s   1.
      valence      4  p   6.
      valence      4  d   9.
  #     ion occupancy
      ion_occ     5  s   0.
      ion_occ     4  p   6.
      ion_occ     4  d   8.
  ################################################################################
  #
  #  Suggested additional basis functions. For production calculations,
  #  uncomment them one after another (the most important basis functions are
  #  listed first).
  #
  #  Constructed for dimers: 2.0 A, 2.275 A, 2.75 A, 3.75 A
  #
  ################################################################################
  #  "First tier" - max. impr. -120.76  meV, min. impr. -5.71 meV
       ionic 5 p auto
       hydro 4 f 8
  #     hydro 5 g 10
       hydro 3 s 2.6
       hydro 3 d 2.5
  #  "Second tier" - max. impr. -5.00  meV, min. impr. -0.62 meV
  #     hydro 5 f 17.2
  #     hydro 6 h 14
  #     hydro 4 d 4
  #     hydro 5 f 7.6
  #     hydro 3 p 3.3
  #     hydro 4 s 9.4
  #  "Third tier" - max. impr. -0.54  meV, min. impr. -0.14 meV
  #     hydro 4 f 20
  #     hydro 5 g 12.8
  #     hydro 5 d 9.8
  #     hydro 6 h 15.2
  #     hydro 5 s 10
  #     hydro 6 p 9.8
  #  "Fourth tier" - max. impr. -0.15  meV, min. impr. -0.05 meV
  #     hydro 5 f 9.2
  #     hydro 2 s 5.6
  #     hydro 5 f 43.2
  #     hydro 5 d 13.2
  #     hydro 5 g 14
  #     hydro 4 p 4.7
  
  -----------------------------------------------------------------------
  Completed first pass over input file control.in .
  -----------------------------------------------------------------------
  
  
  -----------------------------------------------------------------------
  Parsing geometry.in (first pass over file, find array dimensions only).
  The contents of geometry.in will be repeated verbatim below
  unless switched off by setting 'verbatim_writeout .false.' .
  in the first line of geometry.in .
  -----------------------------------------------------------------------
  
  #=======================================================
  # FHI-aims file: ./geometry.in
  # Created using the Atomic Simulation Environment (ASE)
  # Mon Nov 27 10:49:33 2023
  #=======================================================
  lattice_vector 16.3029000000000011 0.0000000000000000 0.0000000000000000
  lattice_vector -8.1514499806691560 14.1187255665179947 0.0000000000000000
  lattice_vector 0.0000000000000000 0.0000000000000000 36.2229000000000028
  atom_frac 0.0666699993149166 0.9333299996574582 0.4003734141523732 O
  atom_frac 0.2666700002635009 0.3333300001317506 0.4003734141523732 O
  atom_frac 0.2666699999473060 0.5333299999736530 0.4003734141523732 O
  atom_frac 0.2666699993149165 0.9333299996574582 0.4003734141523732 O
  atom_frac 0.4666700005796955 0.1333300002898478 0.4003734141523732 O
  atom_frac 0.4666700002635008 0.3333300001317506 0.4003734141523732 O
  atom_frac 0.4666699999473060 0.5333299999736530 0.4003734141523732 O
  atom_frac 0.4666699996311113 0.7333299998155558 0.4003734141523732 O
  atom_frac 0.4666699993149165 0.9333299996574582 0.4003734141523732 O
  atom_frac 0.6666700005796954 0.1333300002898478 0.4003734141523732 O
  atom_frac 0.6666699999473061 0.5333299999736530 0.4003734141523732 O
  atom_frac 0.6666699996311113 0.7333299998155558 0.4003734141523732 O
  atom_frac 0.6666699993149166 0.9333299996574582 0.4003734141523732 O
  atom_frac 0.8666700005796955 0.1333300002898478 0.4003734141523732 O
  atom_frac 0.8666700002635008 0.3333300001317506 0.4003734141523732 O
  atom_frac 0.8666699999473063 0.5333299999736530 0.4003734141523732 O
  atom_frac 0.8666699996311112 0.7333299998155558 0.4003734141523732 O
  atom_frac 0.8666699993149166 0.9333299996574582 0.4003734141523732 O
  atom_frac 0.5333300000526938 0.4666700000263469 0.4177332926270398 Zn
  atom_frac 0.3333300003688885 0.2666700001844444 0.4177332926270398 Zn
  atom_frac 0.5333299997364991 0.6666699998682495 0.4177332926270398 Zn
  atom_frac 0.1333299997364990 0.6666699998682495 0.4177332926270398 Zn
  atom_frac 0.5333299994203043 0.8666699997101522 0.4177332926270398 Zn
  atom_frac 0.3333300000526938 0.4666700000263469 0.4177332926270398 Zn
  atom_frac 0.7333300006850839 0.0666700003425417 0.4177332926270398 Zn
  atom_frac 0.1333300006850832 0.0666700003425417 0.4177332926270398 Zn
  atom_frac 0.7333300003688884 0.2666700001844444 0.4177332926270398 Zn
  atom_frac 0.3333299997364990 0.6666699998682495 0.4177332926270398 Zn
  atom_frac 0.7333300000526937 0.4666700000263469 0.4177332926270398 Zn
  atom_frac 0.1333299994203044 0.8666699997101522 0.4177332926270398 Zn
  atom_frac 0.7333299997364990 0.6666699998682495 0.4177332926270398 Zn
  atom_frac 0.3333299994203043 0.8666699997101522 0.4177332926270398 Zn
  atom_frac 0.7333299994203049 0.8666699997101522 0.4177332926270398 Zn
  atom_frac 0.1333300000526937 0.4666700000263469 0.4177332926270398 Zn
  atom_frac 0.9333300006850834 0.0666700003425417 0.4177332926270398 Zn
  atom_frac 0.5333300006850835 0.0666700003425417 0.4177332926270398 Zn
  atom_frac 0.9333300003688884 0.2666700001844444 0.4177332926270398 Zn
  atom_frac 0.3333300006850832 0.0666700003425417 0.4177332926270398 Zn
  atom_frac 0.9333300000526936 0.4666700000263469 0.4177332926270398 Zn
  atom_frac 0.5333300003688888 0.2666700001844444 0.4177332926270398 Zn
  atom_frac 0.9333299997364989 0.6666699998682495 0.4177332926270398 Zn
  atom_frac 0.1333300003688886 0.2666700001844444 0.4177332926270398 Zn
  atom_frac 0.9333299994203043 0.8666699997101522 0.4177332926270398 Zn
  atom_frac 0.7333300003688884 0.2666700001844444 0.4727665687589894 O
  atom_frac 0.3333300000526938 0.4666700000263469 0.4727665687589894 O
  atom_frac 0.5333300003688888 0.2666700001844444 0.4727665687589894 O
  atom_frac 0.7333300000526937 0.4666700000263469 0.4727665687589894 O
  atom_frac 0.1333299997364990 0.6666699998682495 0.4727665687589894 O
  atom_frac 0.3333300006850832 0.0666700003425417 0.4727665687589894 O
  atom_frac 0.7333299997364990 0.6666699998682495 0.4727665687589894 O
  atom_frac 0.5333300000526938 0.4666700000263469 0.4727665687589894 O
  atom_frac 0.3333299997364990 0.6666699998682495 0.4727665687589894 O
  atom_frac 0.7333299994203049 0.8666699997101522 0.4727665687589894 O
  atom_frac 0.1333300000526937 0.4666700000263469 0.4727665687589894 O
  atom_frac 0.5333299997364991 0.6666699998682495 0.4727665687589894 O
  atom_frac 0.9333300006850834 0.0666700003425417 0.4727665687589894 O
  atom_frac 0.1333300006850832 0.0666700003425417 0.4727665687589894 O
  atom_frac 0.3333299994203043 0.8666699997101522 0.4727665687589894 O
  atom_frac 0.9333300003688884 0.2666700001844444 0.4727665687589894 O
  atom_frac 0.5333299994203043 0.8666699997101522 0.4727665687589894 O
  atom_frac 0.3333300003688885 0.2666700001844444 0.4727665687589894 O
  atom_frac 0.9333300000526936 0.4666700000263469 0.4727665687589894 O
  atom_frac 0.1333299994203044 0.8666699997101522 0.4727665687589894 O
  atom_frac 0.7333300006850839 0.0666700003425417 0.4727665687589894 O
  atom_frac 0.9333299997364989 0.6666699998682495 0.4727665687589894 O
  atom_frac 0.5333300006850835 0.0666700003425417 0.4727665687589894 O
  atom_frac 0.1333300003688886 0.2666700001844444 0.4727665687589894 O
  atom_frac 0.9333299994203043 0.8666699997101522 0.4727665687589894 O
  atom_frac 0.6666699996311113 0.7333299998155558 0.4901264472336560 Zn
  atom_frac 0.4666700005796955 0.1333300002898478 0.4901264472336560 Zn
  atom_frac 0.0666699993149166 0.9333299996574582 0.4901264472336560 Zn
  atom_frac 0.4666699993149165 0.9333299996574582 0.4901264472336560 Zn
  atom_frac 0.6666699993149166 0.9333299996574582 0.4901264472336560 Zn
  atom_frac 0.0666699996311113 0.7333299998155558 0.4901264472336560 Zn
  atom_frac 0.2666699996311113 0.7333299998155558 0.4901264472336560 Zn
  atom_frac 0.4666700002635008 0.3333300001317506 0.4901264472336560 Zn
  atom_frac 0.8666700005796955 0.1333300002898478 0.4901264472336560 Zn
  atom_frac 0.6666700005796954 0.1333300002898478 0.4901264472336560 Zn
  atom_frac 0.2666700002635009 0.3333300001317506 0.4901264472336560 Zn
  atom_frac 0.0666700002635008 0.3333300001317506 0.4901264472336560 Zn
  atom_frac 0.8666700002635008 0.3333300001317506 0.4901264472336560 Zn
  atom_frac 0.0666700005796955 0.1333300002898478 0.4901264472336560 Zn
  atom_frac 0.6666700002635008 0.3333300001317506 0.4901264472336560 Zn
  atom_frac 0.4666699999473060 0.5333299999736530 0.4901264472336560 Zn
  atom_frac 0.8666699999473063 0.5333299999736530 0.4901264472336560 Zn
  atom_frac 0.2666699993149165 0.9333299996574582 0.4901264472336560 Zn
  atom_frac 0.2666700005796955 0.1333300002898478 0.4901264472336560 Zn
  atom_frac 0.6666699999473061 0.5333299999736530 0.4901264472336560 Zn
  atom_frac 0.8666699996311112 0.7333299998155558 0.4901264472336560 Zn
  atom_frac 0.2666699999473060 0.5333299999736530 0.4901264472336560 Zn
  atom_frac 0.4666699996311113 0.7333299998155558 0.4901264472336560 Zn
  atom_frac 0.0666699999473060 0.5333299999736530 0.4901264472336560 Zn
  atom_frac 0.8666699993149166 0.9333299996574582 0.4901264472336560 Zn
  atom_frac 0.4666699999473060 0.5333299999736530 0.5451597233656057 O
      constrain_relaxation .true.
  atom_frac 0.2666700002635009 0.3333300001317506 0.5451597233656057 O
      constrain_relaxation .true.
  atom_frac 0.0666699996311113 0.7333299998155558 0.5451597233656057 O
      constrain_relaxation .true.
  atom_frac 0.4666700005796955 0.1333300002898478 0.5451597233656057 O
      constrain_relaxation .true.
  atom_frac 0.8666700005796955 0.1333300002898478 0.5451597233656057 O
      constrain_relaxation .true.
  atom_frac 0.6666700002635008 0.3333300001317506 0.5451597233656057 O
      constrain_relaxation .true.
  atom_frac 0.2666699996311113 0.7333299998155558 0.5451597233656057 O
      constrain_relaxation .true.
  atom_frac 0.4666699996311113 0.7333299998155558 0.5451597233656057 O
      constrain_relaxation .true.
  atom_frac 0.2666700005796955 0.1333300002898478 0.5451597233656057 O
      constrain_relaxation .true.
  atom_frac 0.8666700002635008 0.3333300001317506 0.5451597233656057 O
      constrain_relaxation .true.
  atom_frac 0.0666699993149166 0.9333299996574582 0.5451597233656057 O
      constrain_relaxation .true.
  atom_frac 0.6666699999473061 0.5333299999736530 0.5451597233656057 O
      constrain_relaxation .true.
  atom_frac 0.0666700002635008 0.3333300001317506 0.5451597233656057 O
      constrain_relaxation .true.
  atom_frac 0.4666700002635008 0.3333300001317506 0.5451597233656057 O
      constrain_relaxation .true.
  atom_frac 0.8666699999473063 0.5333299999736530 0.5451597233656057 O
      constrain_relaxation .true.
  atom_frac 0.4666699993149165 0.9333299996574582 0.5451597233656057 O
      constrain_relaxation .true.
  atom_frac 0.2666699999473060 0.5333299999736530 0.5451597233656057 O
      constrain_relaxation .true.
  atom_frac 0.6666699996311113 0.7333299998155558 0.5451597233656057 O
      constrain_relaxation .true.
  atom_frac 0.2666699993149165 0.9333299996574582 0.5451597233656057 O
      constrain_relaxation .true.
  atom_frac 0.8666699996311112 0.7333299998155558 0.5451597233656057 O
      constrain_relaxation .true.
  atom_frac 0.0666699999473060 0.5333299999736530 0.5451597233656057 O
      constrain_relaxation .true.
  atom_frac 0.0666700005796955 0.1333300002898478 0.5451597233656057 O
      constrain_relaxation .true.
  atom_frac 0.6666700005796954 0.1333300002898478 0.5451597233656057 O
      constrain_relaxation .true.
  atom_frac 0.6666699993149166 0.9333299996574582 0.5451597233656057 O
      constrain_relaxation .true.
  atom_frac 0.8666699993149166 0.9333299996574582 0.5451597233656057 O
      constrain_relaxation .true.
  atom_frac 0.9333300006850834 0.0666700003425417 0.5625196018402723 Zn
      constrain_relaxation .true.
  atom_frac 0.1333300006850832 0.0666700003425417 0.5625196018402723 Zn
      constrain_relaxation .true.
  atom_frac 0.5333299994203043 0.8666699997101522 0.5625196018402723 Zn
      constrain_relaxation .true.
  atom_frac 0.7333300000526937 0.4666700000263469 0.5625196018402723 Zn
      constrain_relaxation .true.
  atom_frac 0.3333299997364990 0.6666699998682495 0.5625196018402723 Zn
      constrain_relaxation .true.
  atom_frac 0.1333299997364990 0.6666699998682495 0.5625196018402723 Zn
      constrain_relaxation .true.
  atom_frac 0.9333300003688884 0.2666700001844444 0.5625196018402723 Zn
      constrain_relaxation .true.
  atom_frac 0.5333300000526938 0.4666700000263469 0.5625196018402723 Zn
      constrain_relaxation .true.
  atom_frac 0.5333300006850835 0.0666700003425417 0.5625196018402723 Zn
      constrain_relaxation .true.
  atom_frac 0.1333300000526937 0.4666700000263469 0.5625196018402723 Zn
      constrain_relaxation .true.
  atom_frac 0.7333299997364990 0.6666699998682495 0.5625196018402723 Zn
      constrain_relaxation .true.
  atom_frac 0.7333300006850839 0.0666700003425417 0.5625196018402723 Zn
      constrain_relaxation .true.
  atom_frac 0.9333300000526936 0.4666700000263469 0.5625196018402723 Zn
      constrain_relaxation .true.
  atom_frac 0.3333300000526938 0.4666700000263469 0.5625196018402723 Zn
      constrain_relaxation .true.
  atom_frac 0.1333299994203044 0.8666699997101522 0.5625196018402723 Zn
      constrain_relaxation .true.
  atom_frac 0.3333300003688885 0.2666700001844444 0.5625196018402723 Zn
      constrain_relaxation .true.
  atom_frac 0.5333299997364991 0.6666699998682495 0.5625196018402723 Zn
      constrain_relaxation .true.
  atom_frac 0.7333299994203049 0.8666699997101522 0.5625196018402723 Zn
      constrain_relaxation .true.
  atom_frac 0.9333299997364989 0.6666699998682495 0.5625196018402723 Zn
      constrain_relaxation .true.
  atom_frac 0.3333299994203043 0.8666699997101522 0.5625196018402723 Zn
      constrain_relaxation .true.
  atom_frac 0.7333300003688884 0.2666700001844444 0.5625196018402723 Zn
      constrain_relaxation .true.
  atom_frac 0.5333300003688888 0.2666700001844444 0.5625196018402723 Zn
      constrain_relaxation .true.
  atom_frac 0.3333300006850832 0.0666700003425417 0.5625196018402723 Zn
      constrain_relaxation .true.
  atom_frac 0.1333300003688886 0.2666700001844444 0.5625196018402723 Zn
      constrain_relaxation .true.
  atom_frac 0.9333299994203043 0.8666699997101522 0.5625196018402723 Zn
      constrain_relaxation .true.
  atom_frac 0.7333300006850839 0.0666700003425417 0.6175528779722219 O
  atom_frac 0.5333300003688888 0.2666700001844444 0.6175528779722219 O
  atom_frac 0.5333299997364991 0.6666699998682495 0.6175528779722219 O
  atom_frac 0.9333300003688884 0.2666700001844444 0.6175528779722219 O
  atom_frac 0.7333299997364990 0.6666699998682495 0.6175528779722219 O
  atom_frac 0.3333299997364990 0.6666699998682495 0.6175528779722219 O
  atom_frac 0.3333300006850832 0.0666700003425417 0.6175528779722219 O
  atom_frac 0.3333300000526938 0.4666700000263469 0.6175528779722219 O
  atom_frac 0.3333300003688885 0.2666700001844444 0.6175528779722219 O
  atom_frac 0.7333300003688884 0.2666700001844444 0.6175528779722219 O
  atom_frac 0.9333300000526936 0.4666700000263469 0.6175528779722219 O
  atom_frac 0.5333300006850835 0.0666700003425417 0.6175528779722219 O
  atom_frac 0.7333299994203049 0.8666699997101522 0.6175528779722219 O
  atom_frac 0.1333299997364990 0.6666699998682495 0.6175528779722219 O
  atom_frac 0.5333299994203043 0.8666699997101522 0.6175528779722219 O
  atom_frac 0.5333300000526938 0.4666700000263469 0.6175528779722219 O
  atom_frac 0.1333300006850832 0.0666700003425417 0.6175528779722219 O
  atom_frac 0.9333299997364989 0.6666699998682495 0.6175528779722219 O
  atom_frac 0.1333300003688886 0.2666700001844444 0.6175528779722219 O
  atom_frac 0.7333300000526937 0.4666700000263469 0.6175528779722219 O
  atom_frac 0.9333300006850834 0.0666700003425417 0.6175528779722219 O
  atom_frac 0.3333299994203043 0.8666699997101522 0.6175528779722219 O
  atom_frac 0.1333299994203044 0.8666699997101522 0.6175528779722219 O
  atom_frac 0.1333300000526937 0.4666700000263469 0.6175528779722219 O
  atom_frac 0.9333299994203043 0.8666699997101522 0.6175528779722219 O
  atom_frac 0.8666700002635008 0.3333300001317506 0.6349127564468886 Zn
  atom_frac 0.6666700002635008 0.3333300001317506 0.6349127564468886 Zn
  atom_frac 0.4666699993149165 0.9333299996574582 0.6349127564468886 Zn
  atom_frac 0.2666699996311113 0.7333299998155558 0.6349127564468886 Zn
  atom_frac 0.2666699999473060 0.5333299999736530 0.6349127564468886 Zn
  atom_frac 0.0666700002635008 0.3333300001317506 0.6349127564468886 Zn
  atom_frac 0.6666699993149166 0.9333299996574582 0.6349127564468886 Zn
  atom_frac 0.4666700002635008 0.3333300001317506 0.6349127564468886 Zn
  atom_frac 0.8666699999473063 0.5333299999736530 0.6349127564468886 Zn
  atom_frac 0.0666699993149166 0.9333299996574582 0.6349127564468886 Zn
  atom_frac 0.0666699996311113 0.7333299998155558 0.6349127564468886 Zn
  atom_frac 0.6666699999473061 0.5333299999736530 0.6349127564468886 Zn
  atom_frac 0.4666699996311113 0.7333299998155558 0.6349127564468886 Zn
  atom_frac 0.6666700005796954 0.1333300002898478 0.6349127564468886 Zn
  atom_frac 0.0666700005796955 0.1333300002898478 0.6349127564468886 Zn
  atom_frac 0.8666700005796955 0.1333300002898478 0.6349127564468886 Zn
  atom_frac 0.8666699996311112 0.7333299998155558 0.6349127564468886 Zn
  atom_frac 0.4666700005796955 0.1333300002898478 0.6349127564468886 Zn
  atom_frac 0.2666700005796955 0.1333300002898478 0.6349127564468886 Zn
  atom_frac 0.0666699999473060 0.5333299999736530 0.6349127564468886 Zn
  atom_frac 0.2666699993149165 0.9333299996574582 0.6349127564468886 Zn
  atom_frac 0.6666699996311113 0.7333299998155558 0.6349127564468886 Zn
  atom_frac 0.4666699999473060 0.5333299999736530 0.6349127564468886 Zn
  atom_frac 0.2666700002635009 0.3333300001317506 0.6349127564468886 Zn
  atom_frac 0.8666699993149166 0.9333299996574582 0.6349127564468886 Zn
  atom_frac 0.2666699996311113 0.7333299998155558 0.6899460325788381 O
  atom_frac 0.6666699993149166 0.9333299996574582 0.6899460325788381 O
  atom_frac 0.6666700005796954 0.1333300002898478 0.6899460325788381 O
  atom_frac 0.6666699999473061 0.5333299999736530 0.6899460325788381 O
  atom_frac 0.0666700005796955 0.1333300002898478 0.6899460325788381 O
  atom_frac 0.0666700002635008 0.3333300001317506 0.6899460325788381 O
  atom_frac 0.8666699999473063 0.5333299999736530 0.6899460325788381 O
  atom_frac 0.4666699999473060 0.5333299999736530 0.6899460325788381 O
  atom_frac 0.2666700005796955 0.1333300002898478 0.6899460325788381 O
  atom_frac 0.0666699996311113 0.7333299998155558 0.6899460325788381 O
  atom_frac 0.0666699993149166 0.9333299996574582 0.6899460325788381 O
  atom_frac 0.8666700005796955 0.1333300002898478 0.6899460325788381 O
  atom_frac 0.4666699993149165 0.9333299996574582 0.6899460325788381 O
  atom_frac 0.4666700002635008 0.3333300001317506 0.6899460325788381 O
  atom_frac 0.6666699996311113 0.7333299998155558 0.6899460325788381 O
  atom_frac 0.8666699996311112 0.7333299998155558 0.6899460325788381 O
  atom_frac 0.6666700002635008 0.3333300001317506 0.6899460325788381 O
  atom_frac 0.2666700002635009 0.3333300001317506 0.6899460325788381 O
  atom_frac 0.0666699999473060 0.5333299999736530 0.6899460325788381 O
  atom_frac 0.4666700005796955 0.1333300002898478 0.6899460325788381 O
  atom_frac 0.2666699999473060 0.5333299999736530 0.6899460325788381 O
  atom_frac 0.8666700002635008 0.3333300001317506 0.6899460325788381 O
  atom_frac 0.4666699996311113 0.7333299998155558 0.6899460325788381 O
  atom_frac 0.2666699993149165 0.9333299996574582 0.6899460325788381 O
  atom_frac 0.8666699993149166 0.9333299996574582 0.6899460325788381 O
  atom_frac 0.9333300000526936 0.4666700000263469 0.7073059110535048 Zn
  atom_frac 0.1333300000526937 0.4666700000263469 0.7073059110535048 Zn
  atom_frac 0.9333300006850834 0.0666700003425417 0.7073059110535048 Zn
  atom_frac 0.5333299997364991 0.6666699998682495 0.7073059110535048 Zn
  atom_frac 0.3333300003688885 0.2666700001844444 0.7073059110535048 Zn
  atom_frac 0.1333299997364990 0.6666699998682495 0.7073059110535048 Zn
  atom_frac 0.1333300003688886 0.2666700001844444 0.7073059110535048 Zn
  atom_frac 0.5333300000526938 0.4666700000263469 0.7073059110535048 Zn
  atom_frac 0.9333299997364989 0.6666699998682495 0.7073059110535048 Zn
  atom_frac 0.7333300006850839 0.0666700003425417 0.7073059110535048 Zn
  atom_frac 0.3333300006850832 0.0666700003425417 0.7073059110535048 Zn
  atom_frac 0.9333300003688884 0.2666700001844444 0.7073059110535048 Zn
  atom_frac 0.7333300000526937 0.4666700000263469 0.7073059110535048 Zn
  atom_frac 0.7333299994203049 0.8666699997101522 0.7073059110535048 Zn
  atom_frac 0.5333300003688888 0.2666700001844444 0.7073059110535048 Zn
  atom_frac 0.3333299997364990 0.6666699998682495 0.7073059110535048 Zn
  atom_frac 0.5333300006850835 0.0666700003425417 0.7073059110535048 Zn
  atom_frac 0.9333299994203043 0.8666699997101522 0.7073059110535048 Zn
  atom_frac 0.3767540967599196 0.3921001002252975 0.3037368271038486 Pd
  atom_frac 0.3767540967599196 0.3921001002252975 0.3451470951939243 Pd
  atom_frac 0.4562900485670621 0.3125641486067715 0.3451470951939243 Pd
  atom_frac 0.4562900481898295 0.5511720034623496 0.3451470951939243 Pd
  atom_frac 0.6153619518041142 0.3921001002252975 0.3037368271038486 Pd
  atom_frac 0.6153619518041142 0.3921001002252975 0.3451470951939243 Pd
  atom_frac 0.5358259999969718 0.4716360518438235 0.3037368271038486 Pd
  atom_frac 0.6153619514268815 0.6307079550808756 0.3037368271038486 Pd
  atom_frac 0.6153619514268815 0.6307079550808756 0.3451470951939243 Pd
  atom_frac 0.6948979032340240 0.5511720034623496 0.3451470951939243 Pd
  
  -----------------------------------------------------------------------
  Completed first pass over input file geometry.in .
  -----------------------------------------------------------------------
  

  Basic array size parameters:
  | Number of species                 :        3
  | Number of atoms                   :      246
  | Number of lattice vectors         :        3
  | Max. basis fn. angular momentum   :        3
  | Max. atomic/ionic basis occupied n:        5
  | Max. number of basis fn. types    :        3
  | Max. radial fns per species/type  :       10
  | Max. logarithmic grid size        :     1444
  | Max. radial integration grid size :       62
  | Max. angular integration grid size:      302
  | Max. angular grid division number :        8
  | Radial grid for Hartree potential :     1444
  | Number of spin channels           :        1

------------------------------------------------------------
          Reading file control.in.
------------------------------------------------------------
  Pre-SCF XC: Using PBE gradient-corrected functionals.
  Spin treatment: No spin polarisation.
  Scalar relativistic treatment of kinetic energy: on-site free-atom approximation to ZORA.
  Convergence accuracy of total energy:  0.1000E-02
  Convergence accuracy of sum of eigenvalues:  0.1000E-02
  Convergence accuracy of self-consistent charge density:  0.1000E-05
  Convergence accuracy of forces:  0.1000E-03
  XC: Using LibXC. Please refer to LibXC output for further details.
  Using libxc - Initializing
  Libxc version: 6.1.0


  ** PLEASE ** be careful using LibXC. Whilst most of the LDA, GGA and MGGA functionals,
  and hybrid variations therein, should be stable (though we always recommend testing!),
  there are several fancy functionals with e.g. range-separation, like HSE03/HSE06/LC-PBEh,
  and also MGGA functionals that depend on the laplacian of the density, like BR89,
  that are not fully implemented due to the infrastrucutre for these functionals being incomplete or non-generic.
  If you want to use these functionals please contact the development team and we will work on them with you!

  You have selected libxc functional MGGA_X_MBEEF (249)
    - Description: mBEEF exchange
    - Type: MGGA(Exchange)
    - Reference to Literature:
      [1] J. Wellendorff, K. T. Lundgaard, K. W. Jacobsen, and T. Bligaard.,  J. Chem. Phys. 140, 144107 (2014)

  You have selected libxc functional GGA_C_PBE_SOL (133)
    - Description: Perdew, Burke & Ernzerhof SOL
    - Type: GGA(Correlation)
    - Reference to Literature:
      [1] J. P. Perdew, A. Ruzsinszky, G. I. Csonka, O. A. Vydrov, G. E. Scuseria, L. A. Constantin, X. Zhou, and K. Burke.,  Phys. Rev. Lett. 100, 136406 (2008)

  Switching on meta-ggas
  Using dipole correction.
  Found k-point grid:         3         3         1
  Using external wrapper (i-PI) for performing (path integral) molecular dynamics
  **Attention: initial geometry.in file will be ignored!
 
  Reading configuration options for species O                   .
  | Found nuclear charge :   8.0000
  | Found atomic mass :    15.9994000000000      amu
  | Found l_max for Hartree potential  :   4
  | Found cutoff potl. onset [A], width [A], scale factor :    3.50000    1.50000    1.00000
  | Threshold for basis-dependent cutoff potential is   0.100000E-03
  | Found data for basic radial integration grid :    36 points, outermost radius =    5.000 A
  | Found multiplier for basic radial grid :   1
  | Found angular grid specification: user-specified.
  | Specified grid contains     5 separate shells.
  | Check grid settings after all constraints further below.
  | Found free-atom valence shell :  2 s   2.000
  | Found free-atom valence shell :  2 p   4.000
  | Found free-ion valence shell :  2 s   1.000
  | Found free-ion valence shell :  2 p   3.000
  | Found hydrogenic basis function :  2 p   1.800
  | Found hydrogenic basis function :  3 d   7.600
  | Found hydrogenic basis function :  3 s   6.400
  Species O                   : Missing cutoff potential type.
  Defaulting to exp(1/x)/(1-x)^2 type cutoff potential.
  Species O : No 'logarithmic' tag. Using default grid for free atom:
  | Default logarithmic grid data [bohr] : 0.1000E-03 0.1000E+03 0.1012E+01
  Species O : On-site basis accuracy parameter (for Gram-Schmidt orthonormalisation) not specified.
  Using default value basis_acc =  0.1000000E-03.
  Species O                   : Using default innermost maximum threshold i_radial=  2 for radial functions.
  Species O                   : Default cutoff onset for free atom density etc. : 0.35000000E+01 AA.
  Species O                   : Basic radial grid will be enhanced according to radial_multiplier =   1, to contain    36 grid points.
 
  Reading configuration options for species Zn                  .
  | Found nuclear charge :  30.0000
  | Found atomic mass :    65.4090000000000      amu
  | Found l_max for Hartree potential  :   4
  | Found cutoff potl. onset [A], width [A], scale factor :    3.50000    1.50000    1.00000
  | Threshold for basis-dependent cutoff potential is   0.100000E-03
  | Found data for basic radial integration grid :    53 points, outermost radius =    5.000 A
  | Found multiplier for basic radial grid :   1
  | Found angular grid specification: user-specified.
  | Specified grid contains     5 separate shells.
  | Check grid settings after all constraints further below.
  | Found free-atom valence shell :  4 s   2.000
  | Found free-atom valence shell :  3 p   6.000
  | Found free-atom valence shell :  3 d  10.000
  | Found free-ion valence shell :  4 s   1.000
  | Found free-ion valence shell :  3 p   6.000
  | Found free-ion valence shell :  3 d   9.000
  | Found hydrogenic basis function :  2 p   1.700
  | Found hydrogenic basis function :  3 s   2.900
  | Found hydrogenic basis function :  4 p   5.400
  | Found hydrogenic basis function :  4 f   7.800
  | Found hydrogenic basis function :  3 d   4.500
  Species Zn                  : Missing cutoff potential type.
  Defaulting to exp(1/x)/(1-x)^2 type cutoff potential.
  Species Zn: No 'logarithmic' tag. Using default grid for free atom:
  | Default logarithmic grid data [bohr] : 0.1000E-03 0.1000E+03 0.1012E+01
  Species Zn: On-site basis accuracy parameter (for Gram-Schmidt orthonormalisation) not specified.
  Using default value basis_acc =  0.1000000E-03.
  Species Zn                  : Using default innermost maximum threshold i_radial=  2 for radial functions.
  Species Zn                  : Default cutoff onset for free atom density etc. : 0.35000000E+01 AA.
  Species Zn                  : Basic radial grid will be enhanced according to radial_multiplier =   1, to contain    53 grid points.
 
  Reading configuration options for species Pd                  .
  | Found nuclear charge :  46.0000
  | Found atomic mass :    106.420000000000      amu
  | Found l_max for Hartree potential  :   4
  | Found cutoff potl. onset [A], width [A], scale factor :    3.50000    1.50000    1.00000
  | Threshold for basis-dependent cutoff potential is   0.100000E-03
  | Found data for basic radial integration grid :    62 points, outermost radius =    5.000 A
  | Found multiplier for basic radial grid :   1
  | Found angular grid specification: user-specified.
  | Specified grid contains     5 separate shells.
  | Check grid settings after all constraints further below.
  | Found free-atom valence shell :  5 s   1.000
  | Found free-atom valence shell :  4 p   6.000
  | Found free-atom valence shell :  4 d   9.000
  | Found free-ion valence shell :  5 s   0.000
  | Found free-ion valence shell :  4 p   6.000
  | Found free-ion valence shell :  4 d   8.000
  | Found ionic basis function :  5 p , default cutoff radius.
  | Found hydrogenic basis function :  4 f   8.000
  | Found hydrogenic basis function :  3 s   2.600
  | Found hydrogenic basis function :  3 d   2.500
  Species Pd                  : Missing cutoff potential type.
  Defaulting to exp(1/x)/(1-x)^2 type cutoff potential.
  Species Pd: No 'logarithmic' tag. Using default grid for free atom:
  | Default logarithmic grid data [bohr] : 0.1000E-03 0.1000E+03 0.1012E+01
  | Will include ionic basis functions of  2.0-fold positive Pd                   ion.
  Species Pd: On-site basis accuracy parameter (for Gram-Schmidt orthonormalisation) not specified.
  Using default value basis_acc =  0.1000000E-03.
  Species Pd                  : Using default innermost maximum threshold i_radial=  2 for radial functions.
  Species Pd                  : Default cutoff onset for free atom density etc. : 0.35000000E+01 AA.
  Species Pd                  : Basic radial grid will be enhanced according to radial_multiplier =   1, to contain    62 grid points.
 
  Finished reading input file 'control.in'.
 
------------------------------------------------------------


------------------------------------------------------------
          Reading geometry description geometry.in.
------------------------------------------------------------
 No relaxation requested - ignoring relaxation constraint.
 No relaxation requested - ignoring relaxation constraint.
 No relaxation requested - ignoring relaxation constraint.
 No relaxation requested - ignoring relaxation constraint.
 No relaxation requested - ignoring relaxation constraint.
 No relaxation requested - ignoring relaxation constraint.
 No relaxation requested - ignoring relaxation constraint.
 No relaxation requested - ignoring relaxation constraint.
 No relaxation requested - ignoring relaxation constraint.
 No relaxation requested - ignoring relaxation constraint.
 No relaxation requested - ignoring relaxation constraint.
 No relaxation requested - ignoring relaxation constraint.
 No relaxation requested - ignoring relaxation constraint.
 No relaxation requested - ignoring relaxation constraint.
 No relaxation requested - ignoring relaxation constraint.
 No relaxation requested - ignoring relaxation constraint.
 No relaxation requested - ignoring relaxation constraint.
 No relaxation requested - ignoring relaxation constraint.
 No relaxation requested - ignoring relaxation constraint.
 No relaxation requested - ignoring relaxation constraint.
 No relaxation requested - ignoring relaxation constraint.
 No relaxation requested - ignoring relaxation constraint.
 No relaxation requested - ignoring relaxation constraint.
 No relaxation requested - ignoring relaxation constraint.
 No relaxation requested - ignoring relaxation constraint.
 No relaxation requested - ignoring relaxation constraint.
 No relaxation requested - ignoring relaxation constraint.
 No relaxation requested - ignoring relaxation constraint.
 No relaxation requested - ignoring relaxation constraint.
 No relaxation requested - ignoring relaxation constraint.
 No relaxation requested - ignoring relaxation constraint.
 No relaxation requested - ignoring relaxation constraint.
 No relaxation requested - ignoring relaxation constraint.
 No relaxation requested - ignoring relaxation constraint.
 No relaxation requested - ignoring relaxation constraint.
 No relaxation requested - ignoring relaxation constraint.
 No relaxation requested - ignoring relaxation constraint.
 No relaxation requested - ignoring relaxation constraint.
 No relaxation requested - ignoring relaxation constraint.
 No relaxation requested - ignoring relaxation constraint.
 No relaxation requested - ignoring relaxation constraint.
 No relaxation requested - ignoring relaxation constraint.
 No relaxation requested - ignoring relaxation constraint.
 No relaxation requested - ignoring relaxation constraint.
 No relaxation requested - ignoring relaxation constraint.
 No relaxation requested - ignoring relaxation constraint.
 No relaxation requested - ignoring relaxation constraint.
 No relaxation requested - ignoring relaxation constraint.
 No relaxation requested - ignoring relaxation constraint.
 No relaxation requested - ignoring relaxation constraint.
  | The smallest distance between any two atoms is         1.50000000 AA.
  | The first atom of this pair is atom number                    241 .
  | The second atom of this pair is atom number                   242 .
  | Wigner-Seitz cell of the first atom image           0     0     0 .
  | (The Wigner-Seitz cell of the second atom is 0 0 0  by definition.)

  Symmetry information by spglib:
  | Precision set to  0.1E-04
  | Number of Operations  : 1
  | Space group           : 1
  | International         : P1 H
  | Schoenflies           : C1^1
  Input structure read successfully.
  The structure contains      246 atoms,  and a total of       4944.000 electrons.

  Input geometry:
  | Unit cell:
  |       16.30290000        0.00000000        0.00000000
  |       -8.15144998       14.11872557        0.00000000
  |        0.00000000        0.00000000       36.22290000
  | Atomic structure:
  |       Atom                x [A]            y [A]            z [A]
  |    1: Species O            -6.52107848       13.17743013       14.50268614
  |    2: Species O             1.63037152        4.70619479       14.50268614
  |    3: Species O             0.00008152        7.52993991       14.50268614
  |    4: Species O            -3.26049848       13.17743013       14.50268614
  |    5: Species O             6.52124152        1.88244968       14.50268614
  |    6: Species O             4.89095152        4.70619479       14.50268614
  |    7: Species O             3.26066152        7.52993991       14.50268614
  |    8: Species O             1.63037152       10.35368502       14.50268614
  |    9: Species O             0.00008152       13.17743013       14.50268614
  |   10: Species O             9.78182152        1.88244968       14.50268614
  |   11: Species O             6.52124152        7.52993991       14.50268614
  |   12: Species O             4.89095152       10.35368502       14.50268614
  |   13: Species O             3.26066152       13.17743013       14.50268614
  |   14: Species O            13.04240152        1.88244968       14.50268614
  |   15: Species O            11.41211152        4.70619479       14.50268614
  |   16: Species O             9.78182152        7.52993991       14.50268614
  |   17: Species O             8.15153152       10.35368502       14.50268614
  |   18: Species O             6.52124152       13.17743013       14.50268614
  |   19: Species Zn            4.89078850        6.58878566       15.13151129
  |   20: Species Zn            3.26049850        3.76504055       15.13151129
  |   21: Species Zn            3.26049850        9.41253077       15.13151129
  |   22: Species Zn           -3.26066150        9.41253077       15.13151129
  |   23: Species Zn            1.63020850       12.23627588       15.13151129
  |   24: Species Zn            1.63020850        6.58878566       15.13151129
  |   25: Species Zn           11.41194850        0.94129544       15.13151129
  |   26: Species Zn            1.63020850        0.94129544       15.13151129
  |   27: Species Zn            9.78165850        3.76504055       15.13151129
  |   28: Species Zn           -0.00008150        9.41253077       15.13151129
  |   29: Species Zn            8.15136850        6.58878566       15.13151129
  |   30: Species Zn           -4.89095150       12.23627588       15.13151129
  |   31: Species Zn            6.52107850        9.41253077       15.13151129
  |   32: Species Zn           -1.63037150       12.23627588       15.13151129
  |   33: Species Zn            4.89078850       12.23627588       15.13151129
  |   34: Species Zn           -1.63037150        6.58878566       15.13151129
  |   35: Species Zn           14.67252850        0.94129544       15.13151129
  |   36: Species Zn            8.15136850        0.94129544       15.13151129
  |   37: Species Zn           13.04223850        3.76504055       15.13151129
  |   38: Species Zn            4.89078850        0.94129544       15.13151129
  |   39: Species Zn           11.41194850        6.58878566       15.13151129
  |   40: Species Zn            6.52107850        3.76504055       15.13151129
  |   41: Species Zn            9.78165850        9.41253077       15.13151129
  |   42: Species Zn           -0.00008150        3.76504055       15.13151129
  |   43: Species Zn            8.15136850       12.23627588       15.13151129
  |   44: Species O             9.78165850        3.76504055       17.12497614
  |   45: Species O             1.63020850        6.58878566       17.12497614
  |   46: Species O             6.52107850        3.76504055       17.12497614
  |   47: Species O             8.15136850        6.58878566       17.12497614
  |   48: Species O            -3.26066150        9.41253077       17.12497614
  |   49: Species O             4.89078850        0.94129544       17.12497614
  |   50: Species O             6.52107850        9.41253077       17.12497614
  |   51: Species O             4.89078850        6.58878566       17.12497614
  |   52: Species O            -0.00008150        9.41253077       17.12497614
  |   53: Species O             4.89078850       12.23627588       17.12497614
  |   54: Species O            -1.63037150        6.58878566       17.12497614
  |   55: Species O             3.26049850        9.41253077       17.12497614
  |   56: Species O            14.67252850        0.94129544       17.12497614
  |   57: Species O             1.63020850        0.94129544       17.12497614
  |   58: Species O            -1.63037150       12.23627588       17.12497614
  |   59: Species O            13.04223850        3.76504055       17.12497614
  |   60: Species O             1.63020850       12.23627588       17.12497614
  |   61: Species O             3.26049850        3.76504055       17.12497614
  |   62: Species O            11.41194850        6.58878566       17.12497614
  |   63: Species O            -4.89095150       12.23627588       17.12497614
  |   64: Species O            11.41194850        0.94129544       17.12497614
  |   65: Species O             9.78165850        9.41253077       17.12497614
  |   66: Species O             8.15136850        0.94129544       17.12497614
  |   67: Species O            -0.00008150        3.76504055       17.12497614
  |   68: Species O             8.15136850       12.23627588       17.12497614
  |   69: Species Zn            4.89095152       10.35368502       17.75380129
  |   70: Species Zn            6.52124152        1.88244968       17.75380129
  |   71: Species Zn           -6.52107848       13.17743013       17.75380129
  |   72: Species Zn            0.00008152       13.17743013       17.75380129
  |   73: Species Zn            3.26066152       13.17743013       17.75380129
  |   74: Species Zn           -4.89078848       10.35368502       17.75380129
  |   75: Species Zn           -1.63020848       10.35368502       17.75380129
  |   76: Species Zn            4.89095152        4.70619479       17.75380129
  |   77: Species Zn           13.04240152        1.88244968       17.75380129
  |   78: Species Zn            9.78182152        1.88244968       17.75380129
  |   79: Species Zn            1.63037152        4.70619479       17.75380129
  |   80: Species Zn           -1.63020848        4.70619479       17.75380129
  |   81: Species Zn           11.41211152        4.70619479       17.75380129
  |   82: Species Zn            0.00008152        1.88244968       17.75380129
  |   83: Species Zn            8.15153152        4.70619479       17.75380129
  |   84: Species Zn            3.26066152        7.52993991       17.75380129
  |   85: Species Zn            9.78182152        7.52993991       17.75380129
  |   86: Species Zn           -3.26049848       13.17743013       17.75380129
  |   87: Species Zn            3.26066152        1.88244968       17.75380129
  |   88: Species Zn            6.52124152        7.52993991       17.75380129
  |   89: Species Zn            8.15153152       10.35368502       17.75380129
  |   90: Species Zn            0.00008152        7.52993991       17.75380129
  |   91: Species Zn            1.63037152       10.35368502       17.75380129
  |   92: Species Zn           -3.26049848        7.52993991       17.75380129
  |   93: Species Zn            6.52124152       13.17743013       17.75380129
  |   94: Species O             3.26066152        7.52993991       19.74726614
  |   95: Species O             1.63037152        4.70619479       19.74726614
  |   96: Species O            -4.89078848       10.35368502       19.74726614
  |   97: Species O             6.52124152        1.88244968       19.74726614
  |   98: Species O            13.04240152        1.88244968       19.74726614
  |   99: Species O             8.15153152        4.70619479       19.74726614
  |  100: Species O            -1.63020848       10.35368502       19.74726614
  |  101: Species O             1.63037152       10.35368502       19.74726614
  |  102: Species O             3.26066152        1.88244968       19.74726614
  |  103: Species O            11.41211152        4.70619479       19.74726614
  |  104: Species O            -6.52107848       13.17743013       19.74726614
  |  105: Species O             6.52124152        7.52993991       19.74726614
  |  106: Species O            -1.63020848        4.70619479       19.74726614
  |  107: Species O             4.89095152        4.70619479       19.74726614
  |  108: Species O             9.78182152        7.52993991       19.74726614
  |  109: Species O             0.00008152       13.17743013       19.74726614
  |  110: Species O             0.00008152        7.52993991       19.74726614
  |  111: Species O             4.89095152       10.35368502       19.74726614
  |  112: Species O            -3.26049848       13.17743013       19.74726614
  |  113: Species O             8.15153152       10.35368502       19.74726614
  |  114: Species O            -3.26049848        7.52993991       19.74726614
  |  115: Species O             0.00008152        1.88244968       19.74726614
  |  116: Species O             9.78182152        1.88244968       19.74726614
  |  117: Species O             3.26066152       13.17743013       19.74726614
  |  118: Species O             6.52124152       13.17743013       19.74726614
  |  119: Species Zn           14.67252850        0.94129544       20.37609129
  |  120: Species Zn            1.63020850        0.94129544       20.37609129
  |  121: Species Zn            1.63020850       12.23627588       20.37609129
  |  122: Species Zn            8.15136850        6.58878566       20.37609129
  |  123: Species Zn           -0.00008150        9.41253077       20.37609129
  |  124: Species Zn           -3.26066150        9.41253077       20.37609129
  |  125: Species Zn           13.04223850        3.76504055       20.37609129
  |  126: Species Zn            4.89078850        6.58878566       20.37609129
  |  127: Species Zn            8.15136850        0.94129544       20.37609129
  |  128: Species Zn           -1.63037150        6.58878566       20.37609129
  |  129: Species Zn            6.52107850        9.41253077       20.37609129
  |  130: Species Zn           11.41194850        0.94129544       20.37609129
  |  131: Species Zn           11.41194850        6.58878566       20.37609129
  |  132: Species Zn            1.63020850        6.58878566       20.37609129
  |  133: Species Zn           -4.89095150       12.23627588       20.37609129
  |  134: Species Zn            3.26049850        3.76504055       20.37609129
  |  135: Species Zn            3.26049850        9.41253077       20.37609129
  |  136: Species Zn            4.89078850       12.23627588       20.37609129
  |  137: Species Zn            9.78165850        9.41253077       20.37609129
  |  138: Species Zn           -1.63037150       12.23627588       20.37609129
  |  139: Species Zn            9.78165850        3.76504055       20.37609129
  |  140: Species Zn            6.52107850        3.76504055       20.37609129
  |  141: Species Zn            4.89078850        0.94129544       20.37609129
  |  142: Species Zn           -0.00008150        3.76504055       20.37609129
  |  143: Species Zn            8.15136850       12.23627588       20.37609129
  |  144: Species O            11.41194850        0.94129544       22.36955614
  |  145: Species O             6.52107850        3.76504055       22.36955614
  |  146: Species O             3.26049850        9.41253077       22.36955614
  |  147: Species O            13.04223850        3.76504055       22.36955614
  |  148: Species O             6.52107850        9.41253077       22.36955614
  |  149: Species O            -0.00008150        9.41253077       22.36955614
  |  150: Species O             4.89078850        0.94129544       22.36955614
  |  151: Species O             1.63020850        6.58878566       22.36955614
  |  152: Species O             3.26049850        3.76504055       22.36955614
  |  153: Species O             9.78165850        3.76504055       22.36955614
  |  154: Species O            11.41194850        6.58878566       22.36955614
  |  155: Species O             8.15136850        0.94129544       22.36955614
  |  156: Species O             4.89078850       12.23627588       22.36955614
  |  157: Species O            -3.26066150        9.41253077       22.36955614
  |  158: Species O             1.63020850       12.23627588       22.36955614
  |  159: Species O             4.89078850        6.58878566       22.36955614
  |  160: Species O             1.63020850        0.94129544       22.36955614
  |  161: Species O             9.78165850        9.41253077       22.36955614
  |  162: Species O            -0.00008150        3.76504055       22.36955614
  |  163: Species O             8.15136850        6.58878566       22.36955614
  |  164: Species O            14.67252850        0.94129544       22.36955614
  |  165: Species O            -1.63037150       12.23627588       22.36955614
  |  166: Species O            -4.89095150       12.23627588       22.36955614
  |  167: Species O            -1.63037150        6.58878566       22.36955614
  |  168: Species O             8.15136850       12.23627588       22.36955614
  |  169: Species Zn           11.41211152        4.70619479       22.99838129
  |  170: Species Zn            8.15153152        4.70619479       22.99838129
  |  171: Species Zn            0.00008152       13.17743013       22.99838129
  |  172: Species Zn           -1.63020848       10.35368502       22.99838129
  |  173: Species Zn            0.00008152        7.52993991       22.99838129
  |  174: Species Zn           -1.63020848        4.70619479       22.99838129
  |  175: Species Zn            3.26066152       13.17743013       22.99838129
  |  176: Species Zn            4.89095152        4.70619479       22.99838129
  |  177: Species Zn            9.78182152        7.52993991       22.99838129
  |  178: Species Zn           -6.52107848       13.17743013       22.99838129
  |  179: Species Zn           -4.89078848       10.35368502       22.99838129
  |  180: Species Zn            6.52124152        7.52993991       22.99838129
  |  181: Species Zn            1.63037152       10.35368502       22.99838129
  |  182: Species Zn            9.78182152        1.88244968       22.99838129
  |  183: Species Zn            0.00008152        1.88244968       22.99838129
  |  184: Species Zn           13.04240152        1.88244968       22.99838129
  |  185: Species Zn            8.15153152       10.35368502       22.99838129
  |  186: Species Zn            6.52124152        1.88244968       22.99838129
  |  187: Species Zn            3.26066152        1.88244968       22.99838129
  |  188: Species Zn           -3.26049848        7.52993991       22.99838129
  |  189: Species Zn           -3.26049848       13.17743013       22.99838129
  |  190: Species Zn            4.89095152       10.35368502       22.99838129
  |  191: Species Zn            3.26066152        7.52993991       22.99838129
  |  192: Species Zn            1.63037152        4.70619479       22.99838129
  |  193: Species Zn            6.52124152       13.17743013       22.99838129
  |  194: Species O            -1.63020848       10.35368502       24.99184614
  |  195: Species O             3.26066152       13.17743013       24.99184614
  |  196: Species O             9.78182152        1.88244968       24.99184614
  |  197: Species O             6.52124152        7.52993991       24.99184614
  |  198: Species O             0.00008152        1.88244968       24.99184614
  |  199: Species O            -1.63020848        4.70619479       24.99184614
  |  200: Species O             9.78182152        7.52993991       24.99184614
  |  201: Species O             3.26066152        7.52993991       24.99184614
  |  202: Species O             3.26066152        1.88244968       24.99184614
  |  203: Species O            -4.89078848       10.35368502       24.99184614
  |  204: Species O            -6.52107848       13.17743013       24.99184614
  |  205: Species O            13.04240152        1.88244968       24.99184614
  |  206: Species O             0.00008152       13.17743013       24.99184614
  |  207: Species O             4.89095152        4.70619479       24.99184614
  |  208: Species O             4.89095152       10.35368502       24.99184614
  |  209: Species O             8.15153152       10.35368502       24.99184614
  |  210: Species O             8.15153152        4.70619479       24.99184614
  |  211: Species O             1.63037152        4.70619479       24.99184614
  |  212: Species O            -3.26049848        7.52993991       24.99184614
  |  213: Species O             6.52124152        1.88244968       24.99184614
  |  214: Species O             0.00008152        7.52993991       24.99184614
  |  215: Species O            11.41211152        4.70619479       24.99184614
  |  216: Species O             1.63037152       10.35368502       24.99184614
  |  217: Species O            -3.26049848       13.17743013       24.99184614
  |  218: Species O             6.52124152       13.17743013       24.99184614
  |  219: Species Zn           11.41194850        6.58878566       25.62067129
  |  220: Species Zn           -1.63037150        6.58878566       25.62067129
  |  221: Species Zn           14.67252850        0.94129544       25.62067129
  |  222: Species Zn            3.26049850        9.41253077       25.62067129
  |  223: Species Zn            3.26049850        3.76504055       25.62067129
  |  224: Species Zn           -3.26066150        9.41253077       25.62067129
  |  225: Species Zn           -0.00008150        3.76504055       25.62067129
  |  226: Species Zn            4.89078850        6.58878566       25.62067129
  |  227: Species Zn            9.78165850        9.41253077       25.62067129
  |  228: Species Zn           11.41194850        0.94129544       25.62067129
  |  229: Species Zn            4.89078850        0.94129544       25.62067129
  |  230: Species Zn           13.04223850        3.76504055       25.62067129
  |  231: Species Zn            8.15136850        6.58878566       25.62067129
  |  232: Species Zn            4.89078850       12.23627588       25.62067129
  |  233: Species Zn            6.52107850        3.76504055       25.62067129
  |  234: Species Zn           -0.00008150        9.41253077       25.62067129
  |  235: Species Zn            8.15136850        0.94129544       25.62067129
  |  236: Species Zn            8.15136850       12.23627588       25.62067129
  |  237: Species Pd            2.94600001        5.53595371       11.00222871
  |  238: Species Pd            2.94600001        5.53595371       12.50222871
  |  239: Species Pd            4.89100001        4.41300744       12.50222871
  |  240: Species Pd            2.94600001        7.78184626       12.50222871
  |  241: Species Pd            6.83600001        5.53595371       11.00222871
  |  242: Species Pd            6.83600001        5.53595371       12.50222871
  |  243: Species Pd            4.89100001        6.65889998       11.00222871
  |  244: Species Pd            4.89100001        8.90479253       11.00222871
  |  245: Species Pd            4.89100001        8.90479253       12.50222871
  |  246: Species Pd            6.83600001        7.78184626       12.50222871

  Lattice parameters for 3D lattice (in Angstroms) :    16.302900   16.302900   36.222900
  Angle(s) between unit vectors (in degrees)       :    90.000000   90.000000  120.000000


  Quantities derived from the lattice vectors (in Angstrom^-1):
  | Reciprocal lattice vector 1:  0.385403  0.222512  0.000000
  | Reciprocal lattice vector 2:  0.000000  0.445025  0.000000
  | Reciprocal lattice vector 3:  0.000000  0.000000  0.173459
  | Unit cell volume                               :   0.833765E+04  Angstrom^3

  Fractional coordinates:
                         L1                L2                L3
       atom_frac         0.06667000        0.93333000        0.40037341  O
       atom_frac         0.26667000        0.33333000        0.40037341  O
       atom_frac         0.26667000        0.53333000        0.40037341  O
       atom_frac         0.26667000        0.93333000        0.40037341  O
       atom_frac         0.46667000        0.13333000        0.40037341  O
       atom_frac         0.46667000        0.33333000        0.40037341  O
       atom_frac         0.46667000        0.53333000        0.40037341  O
       atom_frac         0.46667000        0.73333000        0.40037341  O
       atom_frac         0.46667000        0.93333000        0.40037341  O
       atom_frac         0.66667000        0.13333000        0.40037341  O
       atom_frac         0.66667000        0.53333000        0.40037341  O
       atom_frac         0.66667000        0.73333000        0.40037341  O
       atom_frac         0.66667000        0.93333000        0.40037341  O
       atom_frac         0.86667000        0.13333000        0.40037341  O
       atom_frac         0.86667000        0.33333000        0.40037341  O
       atom_frac         0.86667000        0.53333000        0.40037341  O
       atom_frac         0.86667000        0.73333000        0.40037341  O
       atom_frac         0.86667000        0.93333000        0.40037341  O
       atom_frac         0.53333000        0.46667000        0.41773329  Zn
       atom_frac         0.33333000        0.26667000        0.41773329  Zn
       atom_frac         0.53333000        0.66667000        0.41773329  Zn
       atom_frac         0.13333000        0.66667000        0.41773329  Zn
       atom_frac         0.53333000        0.86667000        0.41773329  Zn
       atom_frac         0.33333000        0.46667000        0.41773329  Zn
       atom_frac         0.73333000        0.06667000        0.41773329  Zn
       atom_frac         0.13333000        0.06667000        0.41773329  Zn
       atom_frac         0.73333000        0.26667000        0.41773329  Zn
       atom_frac         0.33333000        0.66667000        0.41773329  Zn
       atom_frac         0.73333000        0.46667000        0.41773329  Zn
       atom_frac         0.13333000        0.86667000        0.41773329  Zn
       atom_frac         0.73333000        0.66667000        0.41773329  Zn
       atom_frac         0.33333000        0.86667000        0.41773329  Zn
       atom_frac         0.73333000        0.86667000        0.41773329  Zn
       atom_frac         0.13333000        0.46667000        0.41773329  Zn
       atom_frac         0.93333000        0.06667000        0.41773329  Zn
       atom_frac         0.53333000        0.06667000        0.41773329  Zn
       atom_frac         0.93333000        0.26667000        0.41773329  Zn
       atom_frac         0.33333000        0.06667000        0.41773329  Zn
       atom_frac         0.93333000        0.46667000        0.41773329  Zn
       atom_frac         0.53333000        0.26667000        0.41773329  Zn
       atom_frac         0.93333000        0.66667000        0.41773329  Zn
       atom_frac         0.13333000        0.26667000        0.41773329  Zn
       atom_frac         0.93333000        0.86667000        0.41773329  Zn
       atom_frac         0.73333000        0.26667000        0.47276657  O
       atom_frac         0.33333000        0.46667000        0.47276657  O
       atom_frac         0.53333000        0.26667000        0.47276657  O
       atom_frac         0.73333000        0.46667000        0.47276657  O
       atom_frac         0.13333000        0.66667000        0.47276657  O
       atom_frac         0.33333000        0.06667000        0.47276657  O
       atom_frac         0.73333000        0.66667000        0.47276657  O
       atom_frac         0.53333000        0.46667000        0.47276657  O
       atom_frac         0.33333000        0.66667000        0.47276657  O
       atom_frac         0.73333000        0.86667000        0.47276657  O
       atom_frac         0.13333000        0.46667000        0.47276657  O
       atom_frac         0.53333000        0.66667000        0.47276657  O
       atom_frac         0.93333000        0.06667000        0.47276657  O
       atom_frac         0.13333000        0.06667000        0.47276657  O
       atom_frac         0.33333000        0.86667000        0.47276657  O
       atom_frac         0.93333000        0.26667000        0.47276657  O
       atom_frac         0.53333000        0.86667000        0.47276657  O
       atom_frac         0.33333000        0.26667000        0.47276657  O
       atom_frac         0.93333000        0.46667000        0.47276657  O
       atom_frac         0.13333000        0.86667000        0.47276657  O
       atom_frac         0.73333000        0.06667000        0.47276657  O
       atom_frac         0.93333000        0.66667000        0.47276657  O
       atom_frac         0.53333000        0.06667000        0.47276657  O
       atom_frac         0.13333000        0.26667000        0.47276657  O
       atom_frac         0.93333000        0.86667000        0.47276657  O
       atom_frac         0.66667000        0.73333000        0.49012645  Zn
       atom_frac         0.46667000        0.13333000        0.49012645  Zn
       atom_frac         0.06667000        0.93333000        0.49012645  Zn
       atom_frac         0.46667000        0.93333000        0.49012645  Zn
       atom_frac         0.66667000        0.93333000        0.49012645  Zn
       atom_frac         0.06667000        0.73333000        0.49012645  Zn
       atom_frac         0.26667000        0.73333000        0.49012645  Zn
       atom_frac         0.46667000        0.33333000        0.49012645  Zn
       atom_frac         0.86667000        0.13333000        0.49012645  Zn
       atom_frac         0.66667000        0.13333000        0.49012645  Zn
       atom_frac         0.26667000        0.33333000        0.49012645  Zn
       atom_frac         0.06667000        0.33333000        0.49012645  Zn
       atom_frac         0.86667000        0.33333000        0.49012645  Zn
       atom_frac         0.06667000        0.13333000        0.49012645  Zn
       atom_frac         0.66667000        0.33333000        0.49012645  Zn
       atom_frac         0.46667000        0.53333000        0.49012645  Zn
       atom_frac         0.86667000        0.53333000        0.49012645  Zn
       atom_frac         0.26667000        0.93333000        0.49012645  Zn
       atom_frac         0.26667000        0.13333000        0.49012645  Zn
       atom_frac         0.66667000        0.53333000        0.49012645  Zn
       atom_frac         0.86667000        0.73333000        0.49012645  Zn
       atom_frac         0.26667000        0.53333000        0.49012645  Zn
       atom_frac         0.46667000        0.73333000        0.49012645  Zn
       atom_frac         0.06667000        0.53333000        0.49012645  Zn
       atom_frac         0.86667000        0.93333000        0.49012645  Zn
       atom_frac         0.46667000        0.53333000        0.54515972  O
       atom_frac         0.26667000        0.33333000        0.54515972  O
       atom_frac         0.06667000        0.73333000        0.54515972  O
       atom_frac         0.46667000        0.13333000        0.54515972  O
       atom_frac         0.86667000        0.13333000        0.54515972  O
       atom_frac         0.66667000        0.33333000        0.54515972  O
       atom_frac         0.26667000        0.73333000        0.54515972  O
       atom_frac         0.46667000        0.73333000        0.54515972  O
       atom_frac         0.26667000        0.13333000        0.54515972  O
       atom_frac         0.86667000        0.33333000        0.54515972  O
       atom_frac         0.06667000        0.93333000        0.54515972  O
       atom_frac         0.66667000        0.53333000        0.54515972  O
       atom_frac         0.06667000        0.33333000        0.54515972  O
       atom_frac         0.46667000        0.33333000        0.54515972  O
       atom_frac         0.86667000        0.53333000        0.54515972  O
       atom_frac         0.46667000        0.93333000        0.54515972  O
       atom_frac         0.26667000        0.53333000        0.54515972  O
       atom_frac         0.66667000        0.73333000        0.54515972  O
       atom_frac         0.26667000        0.93333000        0.54515972  O
       atom_frac         0.86667000        0.73333000        0.54515972  O
       atom_frac         0.06667000        0.53333000        0.54515972  O
       atom_frac         0.06667000        0.13333000        0.54515972  O
       atom_frac         0.66667000        0.13333000        0.54515972  O
       atom_frac         0.66667000        0.93333000        0.54515972  O
       atom_frac         0.86667000        0.93333000        0.54515972  O
       atom_frac         0.93333000        0.06667000        0.56251960  Zn
       atom_frac         0.13333000        0.06667000        0.56251960  Zn
       atom_frac         0.53333000        0.86667000        0.56251960  Zn
       atom_frac         0.73333000        0.46667000        0.56251960  Zn
       atom_frac         0.33333000        0.66667000        0.56251960  Zn
       atom_frac         0.13333000        0.66667000        0.56251960  Zn
       atom_frac         0.93333000        0.26667000        0.56251960  Zn
       atom_frac         0.53333000        0.46667000        0.56251960  Zn
       atom_frac         0.53333000        0.06667000        0.56251960  Zn
       atom_frac         0.13333000        0.46667000        0.56251960  Zn
       atom_frac         0.73333000        0.66667000        0.56251960  Zn
       atom_frac         0.73333000        0.06667000        0.56251960  Zn
       atom_frac         0.93333000        0.46667000        0.56251960  Zn
       atom_frac         0.33333000        0.46667000        0.56251960  Zn
       atom_frac         0.13333000        0.86667000        0.56251960  Zn
       atom_frac         0.33333000        0.26667000        0.56251960  Zn
       atom_frac         0.53333000        0.66667000        0.56251960  Zn
       atom_frac         0.73333000        0.86667000        0.56251960  Zn
       atom_frac         0.93333000        0.66667000        0.56251960  Zn
       atom_frac         0.33333000        0.86667000        0.56251960  Zn
       atom_frac         0.73333000        0.26667000        0.56251960  Zn
       atom_frac         0.53333000        0.26667000        0.56251960  Zn
       atom_frac         0.33333000        0.06667000        0.56251960  Zn
       atom_frac         0.13333000        0.26667000        0.56251960  Zn
       atom_frac         0.93333000        0.86667000        0.56251960  Zn
       atom_frac         0.73333000        0.06667000        0.61755288  O
       atom_frac         0.53333000        0.26667000        0.61755288  O
       atom_frac         0.53333000        0.66667000        0.61755288  O
       atom_frac         0.93333000        0.26667000        0.61755288  O
       atom_frac         0.73333000        0.66667000        0.61755288  O
       atom_frac         0.33333000        0.66667000        0.61755288  O
       atom_frac         0.33333000        0.06667000        0.61755288  O
       atom_frac         0.33333000        0.46667000        0.61755288  O
       atom_frac         0.33333000        0.26667000        0.61755288  O
       atom_frac         0.73333000        0.26667000        0.61755288  O
       atom_frac         0.93333000        0.46667000        0.61755288  O
       atom_frac         0.53333000        0.06667000        0.61755288  O
       atom_frac         0.73333000        0.86667000        0.61755288  O
       atom_frac         0.13333000        0.66667000        0.61755288  O
       atom_frac         0.53333000        0.86667000        0.61755288  O
[...]
   3312       0.00000           0.647987           17.63262
   3313       0.00000           0.648380           17.64333
   3314       0.00000           0.648564           17.64832
   3315       0.00000           0.649879           17.68410
   3316       0.00000           0.650267           17.69465
   3317       0.00000           0.651979           17.74125
   3318       0.00000           0.652308           17.75019
   3319       0.00000           0.653477           17.78202
   3320       0.00000           0.654411           17.80742
   3321       0.00000           0.655407           17.83454
   3322       0.00000           0.656170           17.85531
   3323       0.00000           0.656980           17.87734
   3324       0.00000           0.657979           17.90451
   3325       0.00000           0.658840           17.92796
   3326       0.00000           0.659538           17.94695
   3327       0.00000           0.659723           17.95199
   3328       0.00000           0.659930           17.95762
   3329       0.00000           0.661156           17.99097
   3330       0.00000           0.662435           18.02579
   3331       0.00000           0.663107           18.04406
   3332       0.00000           0.663828           18.06367
   3333       0.00000           0.664706           18.08757
   3334       0.00000           0.665606           18.11206
   3335       0.00000           0.666136           18.12650
   3336       0.00000           0.666321           18.13151
   3337       0.00000           0.667509           18.16385
   3338       0.00000           0.667890           18.17421
   3339       0.00000           0.668454           18.18956
   3340       0.00000           0.669133           18.20804
   3341       0.00000           0.670036           18.23260
   3342       0.00000           0.671322           18.26761
   3343       0.00000           0.671497           18.27235
   3344       0.00000           0.672337           18.29521
   3345       0.00000           0.672783           18.30735
   3346       0.00000           0.673594           18.32943
   3347       0.00000           0.674056           18.34200
   3348       0.00000           0.674793           18.36206
   3349       0.00000           0.675580           18.38347
   3350       0.00000           0.676170           18.39952
   3351       0.00000           0.677055           18.42361
   3352       0.00000           0.677557           18.43728
   3353       0.00000           0.677871           18.44582
   3354       0.00000           0.678221           18.45532
   3355       0.00000           0.679322           18.48529
   3356       0.00000           0.680237           18.51018
   3357       0.00000           0.680696           18.52267
   3358       0.00000           0.680767           18.52460
   3359       0.00000           0.681173           18.53565
   3360       0.00000           0.681967           18.55726
   3361       0.00000           0.682160           18.56251
   3362       0.00000           0.682641           18.57561
   3363       0.00000           0.682947           18.58393
   3364       0.00000           0.683459           18.59787
   3365       0.00000           0.683568           18.60082
   3366       0.00000           0.683951           18.61124
   3367       0.00000           0.684517           18.62666
   3368       0.00000           0.684975           18.63911
   3369       0.00000           0.685259           18.64684
   3370       0.00000           0.685497           18.65332
   3371       0.00000           0.685961           18.66595
   3372       0.00000           0.686086           18.66936
   3373       0.00000           0.686718           18.68654
   3374       0.00000           0.686957           18.69305
   3375       0.00000           0.687328           18.70315
   3376       0.00000           0.688214           18.72726
   3377       0.00000           0.688758           18.74206
   3378       0.00000           0.688953           18.74736
   3379       0.00000           0.689333           18.75772
   3380       0.00000           0.689565           18.76402
   3381       0.00000           0.690266           18.78310
   3382       0.00000           0.690851           18.79903
   3383       0.00000           0.691606           18.81954
   3384       0.00000           0.691900           18.82755
   3385       0.00000           0.692571           18.84581
   3386       0.00000           0.693205           18.86307
   3387       0.00000           0.693238           18.86396
   3388       0.00000           0.694381           18.89508
   3389       0.00000           0.695529           18.92630
   3390       0.00000           0.696043           18.94030
   3391       0.00000           0.697823           18.98872
   3392       0.00000           0.698185           18.99857
   3393       0.00000           0.698281           19.00118
   3394       0.00000           0.699032           19.02164
   3395       0.00000           0.699787           19.04219
   3396       0.00000           0.700301           19.05617
   3397       0.00000           0.701358           19.08492
   3398       0.00000           0.702083           19.10465
   3399       0.00000           0.702934           19.12782
   3400       0.00000           0.703605           19.14607
   3401       0.00000           0.704280           19.16444
   3402       0.00000           0.704986           19.18364
   3403       0.00000           0.705473           19.19691
   3404       0.00000           0.706285           19.21900
   3405       0.00000           0.707186           19.24351
   3406       0.00000           0.708234           19.27204
   3407       0.00000           0.709395           19.30363
   3408       0.00000           0.709605           19.30934
   3409       0.00000           0.710656           19.33792
   3410       0.00000           0.711512           19.36124
   3411       0.00000           0.711644           19.36481
   3412       0.00000           0.712757           19.39511
   3413       0.00000           0.714734           19.44891
   3414       0.00000           0.716448           19.49555
   3415       0.00000           0.716943           19.50902
   3416       0.00000           0.717173           19.51528
   3417       0.00000           0.717585           19.52647
   3418       0.00000           0.718939           19.56333
   3419       0.00000           0.720050           19.59356
   3420       0.00000           0.721594           19.63556
   3421       0.00000           0.721826           19.64189
   3422       0.00000           0.722493           19.66002
   3423       0.00000           0.723953           19.69978
   3424       0.00000           0.724275           19.70852
   3425       0.00000           0.725398           19.73908
   3426       0.00000           0.726312           19.76396
   3427       0.00000           0.726663           19.77350
   3428       0.00000           0.727436           19.79455
   3429       0.00000           0.729675           19.85546
   3430       0.00000           0.731183           19.89651
   3431       0.00000           0.732338           19.92792
   3432       0.00000           0.732706           19.93793
   3433       0.00000           0.733913           19.97080
   3434       0.00000           0.735149           20.00443
   3435       0.00000           0.736145           20.03152
   3436       0.00000           0.737482           20.06791
   3437       0.00000           0.737792           20.07635
   3438       0.00000           0.739157           20.11347
   3439       0.00000           0.740150           20.14051
   3440       0.00000           0.741232           20.16995
   3441       0.00000           0.742225           20.19698
   3442       0.00000           0.743746           20.23836
   3443       0.00000           0.744507           20.25905
   3444       0.00000           0.745550           20.28744
   3445       0.00000           0.747176           20.33169
   3446       0.00000           0.747532           20.34137
   3447       0.00000           0.747948           20.35271
   3448       0.00000           0.748683           20.37271
   3449       0.00000           0.750234           20.41491
   3450       0.00000           0.751618           20.45256
   3451       0.00000           0.752458           20.47541
   3452       0.00000           0.753538           20.50481
   3453       0.00000           0.754439           20.52932
   3454       0.00000           0.755210           20.55030
   3455       0.00000           0.756417           20.58314
   3456       0.00000           0.757415           20.61032
   3457       0.00000           0.758546           20.64108
   3458       0.00000           0.759736           20.67348
   3459       0.00000           0.760219           20.68661
   3460       0.00000           0.761028           20.70863
   3461       0.00000           0.762178           20.73993
   3462       0.00000           0.763075           20.76432
   3463       0.00000           0.763420           20.77372
   3464       0.00000           0.763793           20.78387
   3465       0.00000           0.765077           20.81882
   3466       0.00000           0.765685           20.83536
   3467       0.00000           0.766378           20.85420
   3468       0.00000           0.767337           20.88031
   3469       0.00000           0.768200           20.90378
   3470       0.00000           0.769087           20.92793
   3471       0.00000           0.769395           20.93630
   3472       0.00000           0.770393           20.96345
   3473       0.00000           0.771019           20.98050
   3474       0.00000           0.771386           20.99048
   3475       0.00000           0.772743           21.02741
   3476       0.00000           0.773582           21.05023
   3477       0.00000           0.773715           21.05387
   3478       0.00000           0.774684           21.08024
   3479       0.00000           0.775166           21.09335
   3480       0.00000           0.775531           21.10327
   3481       0.00000           0.776883           21.14008
   3482       0.00000           0.777149           21.14730
   3483       0.00000           0.777874           21.16702
   3484       0.00000           0.778465           21.18312
   3485       0.00000           0.779822           21.22005
   3486       0.00000           0.780751           21.24532
   3487       0.00000           0.781686           21.27076
   3488       0.00000           0.781969           21.27845
   3489       0.00000           0.782315           21.28787
   3490       0.00000           0.783846           21.32954
   3491       0.00000           0.784392           21.34439
   3492       0.00000           0.784945           21.35943
   3493       0.00000           0.786076           21.39023
   3494       0.00000           0.786220           21.39414
   3495       0.00000           0.786751           21.40857
   3496       0.00000           0.787803           21.43721
   3497       0.00000           0.788442           21.45460
   3498       0.00000           0.789627           21.48683
   3499       0.00000           0.790233           21.50333
   3500       0.00000           0.790610           21.51359
   3501       0.00000           0.791769           21.54514
   3502       0.00000           0.792596           21.56763
   3503       0.00000           0.792841           21.57431
   3504       0.00000           0.793452           21.59093
   3505       0.00000           0.795243           21.63966
   3506       0.00000           0.795680           21.65155
   3507       0.00000           0.796016           21.66069
   3508       0.00000           0.796583           21.67611
   3509       0.00000           0.797481           21.70056
   3510       0.00000           0.797605           21.70393
   3511       0.00000           0.798266           21.72193
   3512       0.00000           0.798686           21.73335
   3513       0.00000           0.799540           21.75660
   3514       0.00000           0.800464           21.78173
   3515       0.00000           0.800846           21.79213
   3516       0.00000           0.802159           21.82785
   3517       0.00000           0.802305           21.83182
   3518       0.00000           0.803114           21.85384
   3519       0.00000           0.803684           21.86936
   3520       0.00000           0.804034           21.87887
   3521       0.00000           0.804119           21.88120
   3522       0.00000           0.804995           21.90504
   3523       0.00000           0.805361           21.91499
   3524       0.00000           0.806418           21.94374
   3525       0.00000           0.807082           21.96183
   3526       0.00000           0.808340           21.99605
   3527       0.00000           0.808612           22.00344
   3528       0.00000           0.809433           22.02579
   3529       0.00000           0.810286           22.04901
   3530       0.00000           0.810523           22.05546

  What follows are estimated values for band gap, HOMO, LUMO, etc.
  | They are estimated on a discrete k-point grid and not necessarily exact.
  | For converged numbers, create a DOS and/or band structure plot on a denser k-grid.

  Highest occupied state (VBM) at     -5.27398522 eV (relative to internal zero)
  | Occupation number:      1.00000040
  | K-point:       3 at    0.333333    0.000000    0.000000 (in units of recip. lattice)

  Lowest unoccupied state (CBM) at    -5.20338328 eV (relative to internal zero)
  | Occupation number:      0.00000000
  | K-point:       4 at    0.333333    0.666667    0.000000 (in units of recip. lattice)

  ESTIMATED overall HOMO-LUMO gap:      0.07060194 eV between HOMO at k-point 3 and LUMO at k-point 4
  | This appears to be an indirect band gap.
  | Smallest direct gap :      0.10644473 eV for k_point 4 at    0.333333    0.666667    0.000000 (in units of recip. lattice)
  However, this system has fractional occupation numbers. Since we use a finite k-point grid,
  this material is metallic within the approximate finite broadening function (occupation_type)
  applied to determine the occupation numbers.
  Calculating total energy contributions from superposition of free atom densities.

  Total energy components:
  | Sum of eigenvalues            :     -159524.45075083 Ha    -4340881.16653227 eV
  | XC energy correction          :      -10905.98557721 Ha     -296766.96689302 eV
  | XC potential correction       :       14169.50640160 Ha      385571.88686903 eV
  | Free-atom electrostatic energy:     -116661.70177076 Ha    -3174526.42330851 eV
  | Hartree energy correction     :           0.00000000 Ha           0.00000000 eV
  | Entropy correction            :          -0.00002304 Ha          -0.00062688 eV
  | ---------------------------
  | Total energy                  :     -272922.63169721 Ha    -7426602.66986477 eV
  | Total energy, T -> 0          :     -272922.63172025 Ha    -7426602.67049165 eV  <-- do not rely on this value for anything but (periodic) metals
  | Electronic free energy        :     -272922.63174329 Ha    -7426602.67111853 eV

  Derived energy quantities:
  | Kinetic energy                :      277667.52160656 Ha     7555717.69359829 eV
  | Electrostatic energy          :     -539684.16772656 Ha   -14685553.39657004 eV
  | Energy correction for multipole
  | error in Hartree potential    :           0.00000000 Ha           0.00000000 eV
  | Sum of eigenvalues per atom                           :      -17645.85840054 eV
  | Total energy (T->0) per atom                          :      -30189.44174997 eV  <-- do not rely on this value for anything but (periodic) metals
  | Electronic free energy per atom                       :      -30189.44175251 eV
  Initialize hartree_potential_storage
  Max. number of atoms included in rho_multipole:          246

  End scf initialization - timings             :  max(cpu_time)    wall_clock(cpu1)
  | Time for scf. initialization                :       61.635 s          61.808 s
  | Boundary condition initialization           :        0.490 s           0.491 s
  | Integration                                 :       10.886 s          10.911 s
  | Solution of K.-S. eqns.                     :       40.650 s          40.720 s
  | Grid partitioning                           :        5.207 s           5.220 s
  | Preloading free-atom quantities on grid     :        3.296 s           3.302 s
  | Free-atom superposition energy              :        0.739 s           0.740 s
  | Total energy evaluation                     :        0.001 s           0.001 s

  Partial memory accounting:
  | Current value for overall tracked memory usage:
  |   Minimum:      316.459 MB (on task  7)
  |   Maximum:      319.787 MB (on task  0)
  |   Average:      318.675 MB
  | Peak value for overall tracked memory usage:
  |   Minimum:      477.186 MB (on task  7 after allocating temp_ham_ovlp)
  |   Maximum:      480.514 MB (on task  0 after allocating temp_ham_ovlp)
  |   Average:      479.402 MB
  | Largest tracked array allocation so far:
  |   Minimum:       80.364 MB (overlap_matrix on task  0)
  |   Maximum:       80.364 MB (overlap_matrix on task  0)
  |   Average:       80.364 MB
  Note:  These values currently only include a subset of arrays which are explicitly tracked.
  The "true" memory usage will be greater.
------------------------------------------------------------
  Available memory after allocating mixing [GB]:    128.75
  Evaluating new KS density using the density matrix
  Evaluating density matrix
  Finished density matrix calculation
  | Time :     2.259 s
  Time summed over all CPUs for getting density from density matrix: real work      374.767 s, elapsed      385.548 s
  Integration grid: deviation in total charge (<rho> - N_e) =   8.794814E-10

  Time for density update prior                :  max(cpu_time)    wall_clock(cpu1)
  | self-consistency iterative process          :       12.731 s          12.761 s
  Available memory before start of SCF loop [GB]:    128.05

------------------------------------------------------------
          Begin self-consistency iteration #    1

  Date     :  20231127, Time     :  105051.544
------------------------------------------------------------
  Pulay mixing of updated and previous charge densities.
  Available memory per node after mixing [GB]:    127.36
  Renormalizing the density to the exact electron count on the 3D integration grid.
  | Formal number of electrons (from input files) :    4944.0000000000
  | Integrated number of electrons on 3D grid     :    4943.9732555401
  | Charge integration error                      :      -0.0267444599
  | Normalization factor for density and gradient :       1.0000054095

  Evaluating partitioned Hartree potential by multipole expansion.
  | Original multipole sum: apparent total charge =   0.273562E-11
  | Sum of charges compensated after spline to logarithmic grids =   0.113685E-03
  | Analytical far-field extrapolation by fixed multipoles:
  | Hartree multipole sum: apparent total charge =   0.273629E-11
  Summing up the Hartree potential.
  Calculating dipole correction via potential gradient
  | Dipole correction gradient                  :    -0.03471860 eV/Angstrom
  | Dipole correction potential jump            :     1.25760822 eV
  Time summed over all CPUs for potential: real work        1.642 s, elapsed        1.659 s
  | RMS charge density error from multipole expansion :   0.421181E-02
  | Average real-space part of the electrostatic potential :      0.01648557 eV

  Integrating Hamiltonian matrix: batch-based integration.
  Time summed over all CPUs for integration: real work      326.051 s, elapsed      331.531 s

  Updating Kohn-Sham eigenvalues and eigenvectors using ELSI and the ELPA eigensolver.
  Starting ELPA eigensolver
