------------------------------------------------------------
          Invoking FHI-aims ...

          When using FHI-aims, please cite the following reference:

            Volker Blum, Ralf Gehrke, Felix Hanke, Paula Havu,
            Ville Havu, Xinguo Ren, Karsten Reuter, and Matthias Scheffler,
            'Ab Initio Molecular Simulations with Numeric Atom-Centered Orbitals',
            Computer Physics Communications 180, 2175-2196 (2009)

          In addition, many other developments in FHI-aims are likely important for
          your particular application. If so, please cite them. A partial list of references
          is written at the end of this file. Thank you for giving credit to the authors
          of these developments.

          For general information about FHI-aims please find us at

            https://fhi-aims.org

          Online tutorials can be found at

            https://fhi-aims-club.gitlab.io/tutorials/tutorials-overview/

          For any questions about FHI-aims, please visit our slack channel at

            https://fhi-aims.slack.com

          and our main development and support site at

            https://aims-git.rz-berlin.mpg.de .

          The latter site, in particular, has a wiki to collect information, as well
          as an issue tracker to log discussions, suggest improvements, and report issues
          or bugs. https://aims-git.rz-berlin.mpg.de is also the main development site
          of the project and all new and updated code versions can be obtained there.
          Please send an email to aims-coordinators@fhi-berlin.mpg.de and we will add
          you to these sites. They are for you and everyone is welcome there.

------------------------------------------------------------



  Date     :  20231127, Time     :  100145.526
  Time zero on CPU 1             :   0.586956000000000E+00  s.
  Internal wall clock time zero  :           470311305.526  s.

  FHI-aims created a unique identifier for this run for later identification
  aims_uuid : 5AE10AFB-98E8-4A1E-AF4B-15FF7DB9093E

  Build configuration of the current instance of FHI-aims
  -------------------------------------------------------
  FHI-aims version      : 230612
  Commit number         : 0c86b0d53
  CMake host system     : Linux-3.10.0-1160.80.1.el7.x86_64
  CMake version         : 3.24.2
  Fortran compiler      : /apps/compilers/intel/2018.2/compilers_and_libraries_2018/linux/mpi/intel64/bin/mpif90 (Intel) version 18.0.2.20180210
  Fortran compiler flags: -O3 -ip -fp-model precise
  C compiler            : /apps/compilers/intel/2018.2/compilers_and_libraries_2018/linux/bin/intel64/icc (Intel) version 18.0.2.20180210
  C compiler flags      : -O3 -ip -fp-model precise -std=gnu99
  HIP compiler          :
  HIP compiler flags    :
  HIP GPU arch          :
  ELPA2 kernel          : AVX2
  Using MPI
  Using ScaLAPACK
  Using LibXC
  Using i-PI
  Using RLSY
  Linking against: /apps/compilers/intel/2018.2/compilers_and_libraries_2018/linux/mkl/lib/intel64/libmkl_intel_lp64.so
                   /apps/compilers/intel/2018.2/compilers_and_libraries_2018/linux/mkl/lib/intel64/libmkl_intel_thread.so
                   /apps/compilers/intel/2018.2/compilers_and_libraries_2018/linux/mkl/lib/intel64/libmkl_core.so
                   /apps/compilers/intel/2018.2/compilers_and_libraries_2018/linux/mkl/lib/intel64/libmkl_blacs_intelmpi_lp64.so
                   /apps/compilers/intel/2018.2/compilers_and_libraries_2018/linux/mkl/lib/intel64/libmkl_scalapack_lp64.so
                   /usr/lib64/libpthread.so

  Using       40 parallel tasks.
  Task        0 on host ccs0135 reporting.
  Task        1 on host ccs0135 reporting.
  Task        2 on host ccs0135 reporting.
  Task        3 on host ccs0135 reporting.
  Task        4 on host ccs0135 reporting.
  Task        5 on host ccs0135 reporting.
  Task        6 on host ccs0135 reporting.
  Task        7 on host ccs0135 reporting.
  Task        8 on host ccs0135 reporting.
  Task        9 on host ccs0135 reporting.
  Task       10 on host ccs0135 reporting.
  Task       11 on host ccs0135 reporting.
  Task       12 on host ccs0135 reporting.
  Task       13 on host ccs0135 reporting.
  Task       14 on host ccs0135 reporting.
  Task       15 on host ccs0135 reporting.
  Task       16 on host ccs0135 reporting.
  Task       17 on host ccs0135 reporting.
  Task       18 on host ccs0135 reporting.
  Task       19 on host ccs0135 reporting.
  Task       20 on host ccs0135 reporting.
  Task       21 on host ccs0135 reporting.
  Task       22 on host ccs0135 reporting.
  Task       23 on host ccs0135 reporting.
  Task       24 on host ccs0135 reporting.
  Task       25 on host ccs0135 reporting.
  Task       26 on host ccs0135 reporting.
  Task       27 on host ccs0135 reporting.
  Task       28 on host ccs0135 reporting.
  Task       29 on host ccs0135 reporting.
  Task       30 on host ccs0135 reporting.
  Task       31 on host ccs0135 reporting.
  Task       32 on host ccs0135 reporting.
  Task       33 on host ccs0135 reporting.
  Task       34 on host ccs0135 reporting.
  Task       35 on host ccs0135 reporting.
  Task       36 on host ccs0135 reporting.
  Task       37 on host ccs0135 reporting.
  Task       38 on host ccs0135 reporting.
  Task       39 on host ccs0135 reporting.

  Obtaining array dimensions for all initial allocations:
  
  -----------------------------------------------------------------------
  Parsing control.in (first pass over file, find array dimensions only).
  The contents of control.in will be repeated verbatim below
  unless switched off by setting 'verbatim_writeout .false.' .
  in the first line of control.in .
  -----------------------------------------------------------------------
  
  #===============================================================================
  # FHI-aims file: ./control.in
  # Created using the Atomic Simulation Environment (ASE)
  # Mon Nov 27 10:01:43 2023
  #===============================================================================
  xc_pre                             pbe 15
  spin                               none
  relativistic                       atomic_zora scalar
  sc_accuracy_etot                   0.001
  sc_accuracy_eev                    0.001
  sc_accuracy_rho                    1e-06
  sc_accuracy_forces                 0.0001
  override_warning_libxc             true
  xc                                 libxc MGGA_X_MBEEF+GGA_C_PBE_SOL
  use_dipole_correction              .true.
  k_grid                             3 3 1
  use_pimd_wrapper                   ccs0135 34813
  #===============================================================================
  
  ################################################################################
  #
  #  FHI-aims code project
  #  VB, Fritz-Haber Institut, 2009
  #
  #  Suggested "light" defaults for O atom (to be pasted into control.in file)
  #  Be sure to double-check any results obtained with these settings for post-processing,
  #  e.g., with the "tight" defaults and larger basis sets.
  #
  ################################################################################
    species        O
  #     global species definitions
      nucleus             8
      mass                15.9994
  #
      l_hartree           4
  #
      cut_pot             3.5  1.5  1.0
      basis_dep_cutoff    1e-4
  #
      radial_base         36 5.0
      radial_multiplier   1
       angular_grids specified
        division   0.2659   50
        division   0.4451  110
        division   0.6052  194
        division   0.7543  302
  #      division   0.8014  434
  #      division   0.8507  590
  #      division   0.8762  770
  #      division   0.9023  974
  #      division   1.2339 1202
  #      outer_grid 974
        outer_grid 302
  ################################################################################
  #
  #  Definition of "minimal" basis
  #
  ################################################################################
  #     valence basis states
      valence      2  s   2.
      valence      2  p   4.
  #     ion occupancy
      ion_occ      2  s   1.
      ion_occ      2  p   3.
  ################################################################################
  #
  #  Suggested additional basis functions. For production calculations,
  #  uncomment them one after another (the most important basis functions are
  #  listed first).
  #
  #  Constructed for dimers: 1.0 A, 1.208 A, 1.5 A, 2.0 A, 3.0 A
  #
  ################################################################################
  #  "First tier" - improvements: -699.05 meV to -159.38 meV
       hydro 2 p 1.8
       hydro 3 d 7.6
       hydro 3 s 6.4
  #  "Second tier" - improvements: -49.91 meV to -5.39 meV
  #     hydro 4 f 11.6
  #     hydro 3 p 6.2
  #     hydro 3 d 5.6
  #     hydro 5 g 17.6
  #     hydro 1 s 0.75
  #  "Third tier" - improvements: -2.83 meV to -0.50 meV
  #     ionic 2 p auto
  #     hydro 4 f 10.8
  #     hydro 4 d 4.7
  #     hydro 2 s 6.8
  #  "Fourth tier" - improvements: -0.40 meV to -0.12 meV
  #     hydro 3 p 5
  #     hydro 3 s 3.3
  #     hydro 5 g 15.6
  #     hydro 4 f 17.6
  #     hydro 4 d 14
  # Further basis functions - -0.08 meV and below
  #     hydro 3 s 2.1
  #     hydro 4 d 11.6
  #     hydro 3 p 16
  #     hydro 2 s 17.2
  ################################################################################
  #
  #  FHI-aims code project
  #  VB, Fritz-Haber Institut, 2010
  #
  #  Suggested "light" defaults for Zn atom (to be pasted into control.in file)
  #  Be sure to double-check any results obtained with these settings for post-processing,
  #  e.g., with the "tight" defaults and larger basis sets.
  #
  ################################################################################
    species        Zn
  #     global species definitions
      nucleus             30
      mass                65.409
  #
      l_hartree           4
  #
      cut_pot             3.5          1.5  1.0
      basis_dep_cutoff    1e-4
  #
      radial_base         53 5.0
      radial_multiplier   1
      angular_grids       specified
        division   0.5114   50
        division   0.8989  110
        division   1.2692  194
        division   1.6226  302
  #      division   1.7854  434
  #      division   2.0877  590
  #      division   2.1298  770
  #      division   2.1730  974
  #      division   2.5659 1202
        outer_grid  302
  ################################################################################
  #
  #  Definition of "minimal" basis
  #
  ################################################################################
  #     valence basis states
      valence      4  s   2.
      valence      3  p   6.
      valence      3  d  10.
  #     ion occupancy
      ion_occ      4  s   1.
      ion_occ      3  p   6.
      ion_occ      3  d   9.
  ################################################################################
  #
  #  Suggested additional basis functions. For production calculations,
  #  uncomment them one after another (the most important basis functions are
  #  listed first).
  #
  #  Constructed for dimers: 2.00 A, 2.30 A, 2.85 A, 3.50 A, 4.25 A
  #
  ################################################################################
  #  "First tier" - improvements: -270.82 meV to -12.81 meV
       hydro 2 p 1.7
       hydro 3 s 2.9
       hydro 4 p 5.4
       hydro 4 f 7.8
       hydro 3 d 4.5
  #  "Second tier" - improvements: -3.35 meV to -0.82 meV
  #     hydro 5 g 10.8
  #     hydro 2 p 2.4
  #     hydro 3 s 6.2
  #     hydro 3 d 3
  #  "Third tier" - improvements: -0.61 meV to -0.12 meV
  #     hydro 6 h 15.2
  #     ionic 4 p auto
  #     hydro 5 s 12.8
  #     hydro 4 f 5.4
  #     hydro 4 d 7
  #  Further functions - improvements: -0.16 meV and below
  #     hydro 4 f 20
  #     hydro 3 p 2.2
  #     hydro 5 f 6.4
  #     hydro 5 g 8
  ################################################################################
  #
  #  FHI-aims code project
  #  VB, Fritz-Haber Institut, 2009
  #
  #  Suggested "light" defaults for Pd atom (to be pasted into control.in file)
  #  Be sure to double-check any results obtained with these settings for post-processing,
  #  e.g., with the "tight" defaults and larger basis sets.
  #
  ################################################################################
    species        Pd
  #     global species definitions
      nucleus             46
      mass                106.42
  #
      l_hartree           4
  #
      cut_pot             3.5  1.5  1.0
      basis_dep_cutoff    1e-4
  #
      radial_base         62 5.0
      radial_multiplier   1
      angular_grids specified
        division   0.5211   50
        division   0.9161  110
        division   1.2296  194
        division   1.5678  302
  #      division   1.9785  434
  #      division   2.0474  590
  #      division   2.1195  770
  #      division   2.1568  974
  #      division   2.7392 1202
  #       outer_grid  974
         outer_grid  302
  ################################################################################
  #
  #  Definition of "minimal" basis
  #
  ################################################################################
  #     valence basis states
      valence      5  s   1.
      valence      4  p   6.
      valence      4  d   9.
  #     ion occupancy
      ion_occ     5  s   0.
      ion_occ     4  p   6.
      ion_occ     4  d   8.
  ################################################################################
  #
  #  Suggested additional basis functions. For production calculations,
  #  uncomment them one after another (the most important basis functions are
  #  listed first).
  #
  #  Constructed for dimers: 2.0 A, 2.275 A, 2.75 A, 3.75 A
  #
  ################################################################################
  #  "First tier" - max. impr. -120.76  meV, min. impr. -5.71 meV
       ionic 5 p auto
       hydro 4 f 8
  #     hydro 5 g 10
       hydro 3 s 2.6
       hydro 3 d 2.5
  #  "Second tier" - max. impr. -5.00  meV, min. impr. -0.62 meV
  #     hydro 5 f 17.2
  #     hydro 6 h 14
  #     hydro 4 d 4
  #     hydro 5 f 7.6
  #     hydro 3 p 3.3
  #     hydro 4 s 9.4
  #  "Third tier" - max. impr. -0.54  meV, min. impr. -0.14 meV
  #     hydro 4 f 20
  #     hydro 5 g 12.8
  #     hydro 5 d 9.8
  #     hydro 6 h 15.2
  #     hydro 5 s 10
  #     hydro 6 p 9.8
  #  "Fourth tier" - max. impr. -0.15  meV, min. impr. -0.05 meV
  #     hydro 5 f 9.2
  #     hydro 2 s 5.6
  #     hydro 5 f 43.2
  #     hydro 5 d 13.2
  #     hydro 5 g 14
  #     hydro 4 p 4.7
  
  -----------------------------------------------------------------------
  Completed first pass over input file control.in .
  -----------------------------------------------------------------------
  
  
  -----------------------------------------------------------------------
  Parsing geometry.in (first pass over file, find array dimensions only).
  The contents of geometry.in will be repeated verbatim below
  unless switched off by setting 'verbatim_writeout .false.' .
  in the first line of geometry.in .
  -----------------------------------------------------------------------
  
  #=======================================================
  # FHI-aims file: ./geometry.in
  # Created using the Atomic Simulation Environment (ASE)
  # Mon Nov 27 10:01:43 2023
  #=======================================================
  lattice_vector 16.3029000000000011 0.0000000000000000 0.0000000000000000
  lattice_vector -8.1514500000000005 14.1187255999999994 0.0000000000000000
  lattice_vector 0.0000000000000000 0.0000000000000000 36.2229000000000028
  atom_frac 0.0666699993149167 0.9333299986298332 0.2968375313544747 O
  atom_frac 0.2666700002635010 0.3333300005270019 0.2968375313544747 O
  atom_frac 0.2666699999473062 0.5333299998946123 0.2968375313544747 O
  atom_frac 0.2666699993149168 0.9333299986298332 0.2968375313544747 O
  atom_frac 0.4666700005796957 0.1333300011593914 0.2968375313544747 O
  atom_frac 0.4666700002635009 0.3333300005270019 0.2968375313544747 O
  atom_frac 0.4666699999473062 0.5333299998946123 0.2968375313544747 O
  atom_frac 0.4666699996311115 0.7333299992622229 0.2968375313544747 O
  atom_frac 0.4666699993149168 0.9333299986298332 0.2968375313544747 O
  atom_frac 0.6666700005796957 0.1333300011593914 0.2968375313544747 O
  atom_frac 0.6666699999473062 0.5333299998946123 0.2968375313544747 O
  atom_frac 0.6666699996311114 0.7333299992622229 0.2968375313544747 O
  atom_frac 0.6666699993149168 0.9333299986298332 0.2968375313544747 O
  atom_frac 0.8666700005796958 0.1333300011593914 0.2968375313544747 O
  atom_frac 0.8666700002635012 0.3333300005270019 0.2968375313544747 O
  atom_frac 0.8666699999473064 0.5333299998946123 0.2968375313544747 O
  atom_frac 0.8666699996311116 0.7333299992622229 0.2968375313544747 O
  atom_frac 0.8666699993149168 0.9333299986298332 0.2968375313544747 O
  atom_frac 0.5333300000526938 0.4666700001053877 0.3141974098291412 Zn
  atom_frac 0.3333300003688887 0.2666700007377774 0.3141974098291412 Zn
  atom_frac 0.5333299997364992 0.6666699994729982 0.3141974098291412 Zn
  atom_frac 0.1333299997364992 0.6666699994729982 0.3141974098291412 Zn
  atom_frac 0.5333299994203045 0.8666699988406087 0.3141974098291412 Zn
  atom_frac 0.3333300000526939 0.4666700001053877 0.3141974098291412 Zn
  atom_frac 0.7333300006850836 0.0666700013701669 0.3141974098291412 Zn
  atom_frac 0.1333300006850834 0.0666700013701669 0.3141974098291412 Zn
  atom_frac 0.7333300003688888 0.2666700007377774 0.3141974098291412 Zn
  atom_frac 0.3333299997364992 0.6666699994729982 0.3141974098291412 Zn
  atom_frac 0.7333300000526940 0.4666700001053877 0.3141974098291412 Zn
  atom_frac 0.1333299994203044 0.8666699988406087 0.3141974098291412 Zn
  atom_frac 0.7333299997364993 0.6666699994729982 0.3141974098291412 Zn
  atom_frac 0.3333299994203045 0.8666699988406087 0.3141974098291412 Zn
  atom_frac 0.7333299994203045 0.8666699988406087 0.3141974098291412 Zn
  atom_frac 0.1333300000526939 0.4666700001053877 0.3141974098291412 Zn
  atom_frac 0.9333300006850834 0.0666700013701669 0.3141974098291412 Zn
  atom_frac 0.5333300006850835 0.0666700013701669 0.3141974098291412 Zn
  atom_frac 0.9333300003688888 0.2666700007377774 0.3141974098291412 Zn
  atom_frac 0.3333300006850833 0.0666700013701669 0.3141974098291412 Zn
  atom_frac 0.9333300000526940 0.4666700001053877 0.3141974098291412 Zn
  atom_frac 0.5333300003688887 0.2666700007377774 0.3141974098291412 Zn
  atom_frac 0.9333299997364993 0.6666699994729982 0.3141974098291412 Zn
  atom_frac 0.1333300003688887 0.2666700007377774 0.3141974098291412 Zn
  atom_frac 0.9333299994203045 0.8666699988406087 0.3141974098291412 Zn
  atom_frac 0.7333300003688888 0.2666700007377774 0.3692306859610909 O
  atom_frac 0.3333300000526939 0.4666700001053877 0.3692306859610909 O
  atom_frac 0.5333300003688887 0.2666700007377774 0.3692306859610909 O
  atom_frac 0.7333300000526940 0.4666700001053877 0.3692306859610909 O
  atom_frac 0.1333299997364992 0.6666699994729982 0.3692306859610909 O
  atom_frac 0.3333300006850833 0.0666700013701669 0.3692306859610909 O
  atom_frac 0.7333299997364993 0.6666699994729982 0.3692306859610909 O
  atom_frac 0.5333300000526938 0.4666700001053877 0.3692306859610909 O
  atom_frac 0.3333299997364992 0.6666699994729982 0.3692306859610909 O
  atom_frac 0.7333299994203045 0.8666699988406087 0.3692306859610909 O
  atom_frac 0.1333300000526939 0.4666700001053877 0.3692306859610909 O
  atom_frac 0.5333299997364992 0.6666699994729982 0.3692306859610909 O
  atom_frac 0.9333300006850834 0.0666700013701669 0.3692306859610909 O
  atom_frac 0.1333300006850834 0.0666700013701669 0.3692306859610909 O
  atom_frac 0.3333299994203045 0.8666699988406087 0.3692306859610909 O
  atom_frac 0.9333300003688888 0.2666700007377774 0.3692306859610909 O
  atom_frac 0.5333299994203045 0.8666699988406087 0.3692306859610909 O
  atom_frac 0.3333300003688887 0.2666700007377774 0.3692306859610909 O
  atom_frac 0.9333300000526940 0.4666700001053877 0.3692306859610909 O
  atom_frac 0.1333299994203044 0.8666699988406087 0.3692306859610909 O
  atom_frac 0.7333300006850836 0.0666700013701669 0.3692306859610909 O
  atom_frac 0.9333299997364993 0.6666699994729982 0.3692306859610909 O
  atom_frac 0.5333300006850835 0.0666700013701669 0.3692306859610909 O
  atom_frac 0.1333300003688887 0.2666700007377774 0.3692306859610909 O
  atom_frac 0.9333299994203045 0.8666699988406087 0.3692306859610909 O
  atom_frac 0.6666699996311114 0.7333299992622229 0.3865905644357575 Zn
  atom_frac 0.4666700005796957 0.1333300011593914 0.3865905644357575 Zn
  atom_frac 0.0666699993149167 0.9333299986298332 0.3865905644357575 Zn
  atom_frac 0.4666699993149168 0.9333299986298332 0.3865905644357575 Zn
  atom_frac 0.6666699993149168 0.9333299986298332 0.3865905644357575 Zn
  atom_frac 0.0666699996311115 0.7333299992622229 0.3865905644357575 Zn
  atom_frac 0.2666699996311115 0.7333299992622229 0.3865905644357575 Zn
  atom_frac 0.4666700002635009 0.3333300005270019 0.3865905644357575 Zn
  atom_frac 0.8666700005796958 0.1333300011593914 0.3865905644357575 Zn
  atom_frac 0.6666700005796957 0.1333300011593914 0.3865905644357575 Zn
  atom_frac 0.2666700002635010 0.3333300005270019 0.3865905644357575 Zn
  atom_frac 0.0666700002635010 0.3333300005270019 0.3865905644357575 Zn
  atom_frac 0.8666700002635012 0.3333300005270019 0.3865905644357575 Zn
  atom_frac 0.0666700005796957 0.1333300011593914 0.3865905644357575 Zn
  atom_frac 0.6666700002635011 0.3333300005270019 0.3865905644357575 Zn
  atom_frac 0.4666699999473062 0.5333299998946123 0.3865905644357575 Zn
  atom_frac 0.8666699999473064 0.5333299998946123 0.3865905644357575 Zn
  atom_frac 0.2666699993149168 0.9333299986298332 0.3865905644357575 Zn
  atom_frac 0.2666700005796957 0.1333300011593914 0.3865905644357575 Zn
  atom_frac 0.6666699999473062 0.5333299998946123 0.3865905644357575 Zn
  atom_frac 0.8666699996311116 0.7333299992622229 0.3865905644357575 Zn
  atom_frac 0.2666699999473062 0.5333299998946123 0.3865905644357575 Zn
  atom_frac 0.4666699996311115 0.7333299992622229 0.3865905644357575 Zn
  atom_frac 0.0666699999473062 0.5333299998946123 0.3865905644357575 Zn
  atom_frac 0.8666699993149168 0.9333299986298332 0.3865905644357575 Zn
  atom_frac 0.4666699999473062 0.5333299998946123 0.4416238405677071 O
      constrain_relaxation .true.
  atom_frac 0.2666700002635010 0.3333300005270019 0.4416238405677071 O
      constrain_relaxation .true.
  atom_frac 0.0666699996311115 0.7333299992622229 0.4416238405677071 O
      constrain_relaxation .true.
  atom_frac 0.4666700005796957 0.1333300011593914 0.4416238405677071 O
      constrain_relaxation .true.
  atom_frac 0.8666700005796958 0.1333300011593914 0.4416238405677071 O
      constrain_relaxation .true.
  atom_frac 0.6666700002635011 0.3333300005270019 0.4416238405677071 O
      constrain_relaxation .true.
  atom_frac 0.2666699996311115 0.7333299992622229 0.4416238405677071 O
      constrain_relaxation .true.
  atom_frac 0.4666699996311115 0.7333299992622229 0.4416238405677071 O
      constrain_relaxation .true.
  atom_frac 0.2666700005796957 0.1333300011593914 0.4416238405677071 O
      constrain_relaxation .true.
  atom_frac 0.8666700002635012 0.3333300005270019 0.4416238405677071 O
      constrain_relaxation .true.
  atom_frac 0.0666699993149167 0.9333299986298332 0.4416238405677071 O
      constrain_relaxation .true.
  atom_frac 0.6666699999473062 0.5333299998946123 0.4416238405677071 O
      constrain_relaxation .true.
  atom_frac 0.0666700002635010 0.3333300005270019 0.4416238405677071 O
      constrain_relaxation .true.
  atom_frac 0.4666700002635009 0.3333300005270019 0.4416238405677071 O
      constrain_relaxation .true.
  atom_frac 0.8666699999473064 0.5333299998946123 0.4416238405677071 O
      constrain_relaxation .true.
  atom_frac 0.4666699993149168 0.9333299986298332 0.4416238405677071 O
      constrain_relaxation .true.
  atom_frac 0.2666699999473062 0.5333299998946123 0.4416238405677071 O
      constrain_relaxation .true.
  atom_frac 0.6666699996311114 0.7333299992622229 0.4416238405677071 O
      constrain_relaxation .true.
  atom_frac 0.2666699993149168 0.9333299986298332 0.4416238405677071 O
      constrain_relaxation .true.
  atom_frac 0.8666699996311116 0.7333299992622229 0.4416238405677071 O
      constrain_relaxation .true.
  atom_frac 0.0666699999473062 0.5333299998946123 0.4416238405677071 O
      constrain_relaxation .true.
  atom_frac 0.0666700005796957 0.1333300011593914 0.4416238405677071 O
      constrain_relaxation .true.
  atom_frac 0.6666700005796957 0.1333300011593914 0.4416238405677071 O
      constrain_relaxation .true.
  atom_frac 0.6666699993149168 0.9333299986298332 0.4416238405677071 O
      constrain_relaxation .true.
  atom_frac 0.8666699993149168 0.9333299986298332 0.4416238405677071 O
      constrain_relaxation .true.
  atom_frac 0.9333300006850834 0.0666700013701669 0.4589837190423737 Zn
      constrain_relaxation .true.
  atom_frac 0.1333300006850834 0.0666700013701669 0.4589837190423737 Zn
      constrain_relaxation .true.
  atom_frac 0.5333299994203045 0.8666699988406087 0.4589837190423737 Zn
      constrain_relaxation .true.
  atom_frac 0.7333300000526940 0.4666700001053877 0.4589837190423737 Zn
      constrain_relaxation .true.
  atom_frac 0.3333299997364992 0.6666699994729982 0.4589837190423737 Zn
      constrain_relaxation .true.
  atom_frac 0.1333299997364992 0.6666699994729982 0.4589837190423737 Zn
      constrain_relaxation .true.
  atom_frac 0.9333300003688888 0.2666700007377774 0.4589837190423737 Zn
      constrain_relaxation .true.
  atom_frac 0.5333300000526938 0.4666700001053877 0.4589837190423737 Zn
      constrain_relaxation .true.
  atom_frac 0.5333300006850835 0.0666700013701669 0.4589837190423737 Zn
      constrain_relaxation .true.
  atom_frac 0.1333300000526939 0.4666700001053877 0.4589837190423737 Zn
      constrain_relaxation .true.
  atom_frac 0.7333299997364993 0.6666699994729982 0.4589837190423737 Zn
      constrain_relaxation .true.
  atom_frac 0.7333300006850836 0.0666700013701669 0.4589837190423737 Zn
      constrain_relaxation .true.
  atom_frac 0.9333300000526940 0.4666700001053877 0.4589837190423737 Zn
      constrain_relaxation .true.
  atom_frac 0.3333300000526939 0.4666700001053877 0.4589837190423737 Zn
      constrain_relaxation .true.
  atom_frac 0.1333299994203044 0.8666699988406087 0.4589837190423737 Zn
      constrain_relaxation .true.
  atom_frac 0.3333300003688887 0.2666700007377774 0.4589837190423737 Zn
      constrain_relaxation .true.
  atom_frac 0.5333299997364992 0.6666699994729982 0.4589837190423737 Zn
      constrain_relaxation .true.
  atom_frac 0.7333299994203045 0.8666699988406087 0.4589837190423737 Zn
      constrain_relaxation .true.
  atom_frac 0.9333299997364993 0.6666699994729982 0.4589837190423737 Zn
      constrain_relaxation .true.
  atom_frac 0.3333299994203045 0.8666699988406087 0.4589837190423737 Zn
      constrain_relaxation .true.
  atom_frac 0.7333300003688888 0.2666700007377774 0.4589837190423737 Zn
      constrain_relaxation .true.
  atom_frac 0.5333300003688887 0.2666700007377774 0.4589837190423737 Zn
      constrain_relaxation .true.
  atom_frac 0.3333300006850833 0.0666700013701669 0.4589837190423737 Zn
      constrain_relaxation .true.
  atom_frac 0.1333300003688887 0.2666700007377774 0.4589837190423737 Zn
      constrain_relaxation .true.
  atom_frac 0.9333299994203045 0.8666699988406087 0.4589837190423737 Zn
      constrain_relaxation .true.
  atom_frac 0.7333300006850836 0.0666700013701669 0.5140169951743233 O
  atom_frac 0.5333300003688887 0.2666700007377774 0.5140169951743233 O
  atom_frac 0.5333299997364992 0.6666699994729982 0.5140169951743233 O
  atom_frac 0.9333300003688888 0.2666700007377774 0.5140169951743233 O
  atom_frac 0.7333299997364993 0.6666699994729982 0.5140169951743233 O
  atom_frac 0.3333299997364992 0.6666699994729982 0.5140169951743233 O
  atom_frac 0.3333300006850833 0.0666700013701669 0.5140169951743233 O
  atom_frac 0.3333300000526939 0.4666700001053877 0.5140169951743233 O
  atom_frac 0.3333300003688887 0.2666700007377774 0.5140169951743233 O
  atom_frac 0.7333300003688888 0.2666700007377774 0.5140169951743233 O
  atom_frac 0.9333300000526940 0.4666700001053877 0.5140169951743233 O
  atom_frac 0.5333300006850835 0.0666700013701669 0.5140169951743233 O
  atom_frac 0.7333299994203045 0.8666699988406087 0.5140169951743233 O
  atom_frac 0.1333299997364992 0.6666699994729982 0.5140169951743233 O
  atom_frac 0.5333299994203045 0.8666699988406087 0.5140169951743233 O
  atom_frac 0.5333300000526938 0.4666700001053877 0.5140169951743233 O
  atom_frac 0.1333300006850834 0.0666700013701669 0.5140169951743233 O
  atom_frac 0.9333299997364993 0.6666699994729982 0.5140169951743233 O
  atom_frac 0.1333300003688887 0.2666700007377774 0.5140169951743233 O
  atom_frac 0.7333300000526940 0.4666700001053877 0.5140169951743233 O
  atom_frac 0.9333300006850834 0.0666700013701669 0.5140169951743233 O
  atom_frac 0.3333299994203045 0.8666699988406087 0.5140169951743233 O
  atom_frac 0.1333299994203044 0.8666699988406087 0.5140169951743233 O
  atom_frac 0.1333300000526939 0.4666700001053877 0.5140169951743233 O
  atom_frac 0.9333299994203045 0.8666699988406087 0.5140169951743233 O
  atom_frac 0.8666700002635012 0.3333300005270019 0.5313768736489900 Zn
  atom_frac 0.6666700002635011 0.3333300005270019 0.5313768736489900 Zn
  atom_frac 0.4666699993149168 0.9333299986298332 0.5313768736489900 Zn
  atom_frac 0.2666699996311115 0.7333299992622229 0.5313768736489900 Zn
  atom_frac 0.2666699999473062 0.5333299998946123 0.5313768736489900 Zn
  atom_frac 0.0666700002635010 0.3333300005270019 0.5313768736489900 Zn
  atom_frac 0.6666699993149168 0.9333299986298332 0.5313768736489900 Zn
  atom_frac 0.4666700002635009 0.3333300005270019 0.5313768736489900 Zn
  atom_frac 0.8666699999473064 0.5333299998946123 0.5313768736489900 Zn
  atom_frac 0.0666699993149167 0.9333299986298332 0.5313768736489900 Zn
  atom_frac 0.0666699996311115 0.7333299992622229 0.5313768736489900 Zn
  atom_frac 0.6666699999473062 0.5333299998946123 0.5313768736489900 Zn
  atom_frac 0.4666699996311115 0.7333299992622229 0.5313768736489900 Zn
  atom_frac 0.6666700005796957 0.1333300011593914 0.5313768736489900 Zn
  atom_frac 0.0666700005796957 0.1333300011593914 0.5313768736489900 Zn
  atom_frac 0.8666700005796958 0.1333300011593914 0.5313768736489900 Zn
  atom_frac 0.8666699996311116 0.7333299992622229 0.5313768736489900 Zn
  atom_frac 0.4666700005796957 0.1333300011593914 0.5313768736489900 Zn
  atom_frac 0.2666700005796957 0.1333300011593914 0.5313768736489900 Zn
  atom_frac 0.0666699999473062 0.5333299998946123 0.5313768736489900 Zn
  atom_frac 0.2666699993149168 0.9333299986298332 0.5313768736489900 Zn
  atom_frac 0.6666699996311114 0.7333299992622229 0.5313768736489900 Zn
  atom_frac 0.4666699999473062 0.5333299998946123 0.5313768736489900 Zn
  atom_frac 0.2666700002635010 0.3333300005270019 0.5313768736489900 Zn
  atom_frac 0.8666699993149168 0.9333299986298332 0.5313768736489900 Zn
  atom_frac 0.2666699996311115 0.7333299992622229 0.5864101497809397 O
  atom_frac 0.6666699993149168 0.9333299986298332 0.5864101497809397 O
  atom_frac 0.6666700005796957 0.1333300011593914 0.5864101497809397 O
  atom_frac 0.6666699999473062 0.5333299998946123 0.5864101497809397 O
  atom_frac 0.0666700005796957 0.1333300011593914 0.5864101497809397 O
  atom_frac 0.0666700002635010 0.3333300005270019 0.5864101497809397 O
  atom_frac 0.8666699999473064 0.5333299998946123 0.5864101497809397 O
  atom_frac 0.4666699999473062 0.5333299998946123 0.5864101497809397 O
  atom_frac 0.2666700005796957 0.1333300011593914 0.5864101497809397 O
  atom_frac 0.0666699996311115 0.7333299992622229 0.5864101497809397 O
  atom_frac 0.0666699993149167 0.9333299986298332 0.5864101497809397 O
  atom_frac 0.8666700005796958 0.1333300011593914 0.5864101497809397 O
  atom_frac 0.4666699993149168 0.9333299986298332 0.5864101497809397 O
  atom_frac 0.4666700002635009 0.3333300005270019 0.5864101497809397 O
  atom_frac 0.6666699996311114 0.7333299992622229 0.5864101497809397 O
  atom_frac 0.8666699996311116 0.7333299992622229 0.5864101497809397 O
  atom_frac 0.6666700002635011 0.3333300005270019 0.5864101497809397 O
  atom_frac 0.2666700002635010 0.3333300005270019 0.5864101497809397 O
  atom_frac 0.0666699999473062 0.5333299998946123 0.5864101497809397 O
  atom_frac 0.4666700005796957 0.1333300011593914 0.5864101497809397 O
  atom_frac 0.2666699999473062 0.5333299998946123 0.5864101497809397 O
  atom_frac 0.8666700002635012 0.3333300005270019 0.5864101497809397 O
  atom_frac 0.4666699996311115 0.7333299992622229 0.5864101497809397 O
  atom_frac 0.2666699993149168 0.9333299986298332 0.5864101497809397 O
  atom_frac 0.8666699993149168 0.9333299986298332 0.5864101497809397 O
  atom_frac 0.9333300000526940 0.4666700001053877 0.6037700282556062 Zn
  atom_frac 0.1333300000526939 0.4666700001053877 0.6037700282556062 Zn
  atom_frac 0.9333300006850834 0.0666700013701669 0.6037700282556062 Zn
  atom_frac 0.5333299997364992 0.6666699994729982 0.6037700282556062 Zn
  atom_frac 0.3333300003688887 0.2666700007377774 0.6037700282556062 Zn
  atom_frac 0.1333299997364992 0.6666699994729982 0.6037700282556062 Zn
  atom_frac 0.1333300003688887 0.2666700007377774 0.6037700282556062 Zn
  atom_frac 0.5333300000526938 0.4666700001053877 0.6037700282556062 Zn
  atom_frac 0.9333299997364993 0.6666699994729982 0.6037700282556062 Zn
  atom_frac 0.7333300006850836 0.0666700013701669 0.6037700282556062 Zn
  atom_frac 0.3333300006850833 0.0666700013701669 0.6037700282556062 Zn
  atom_frac 0.9333300003688888 0.2666700007377774 0.6037700282556062 Zn
  atom_frac 0.7333300000526940 0.4666700001053877 0.6037700282556062 Zn
  atom_frac 0.7333299994203045 0.8666699988406087 0.6037700282556062 Zn
  atom_frac 0.5333300003688887 0.2666700007377774 0.6037700282556062 Zn
  atom_frac 0.3333299997364992 0.6666699994729982 0.6037700282556062 Zn
  atom_frac 0.5333300006850835 0.0666700013701669 0.6037700282556062 Zn
  atom_frac 0.9333299994203045 0.8666699988406087 0.6037700282556062 Zn
  atom_frac 0.3767540975504067 0.3921001020621518 0.6617522005554498 Pd
  atom_frac 0.3767540975504067 0.3921001020621518 0.7031624686455253 Pd
  atom_frac 0.4562900493575491 0.3125641506322421 0.7031624686455253 Pd
  atom_frac 0.4562900489803164 0.5511720049219712 0.7031624686455253 Pd
  atom_frac 0.6153619525946012 0.3921001020621518 0.6617522005554498 Pd
  atom_frac 0.6153619525946012 0.3921001020621518 0.7031624686455253 Pd
  atom_frac 0.5358260007874588 0.4716360534920614 0.6617522005554498 Pd
  atom_frac 0.6153619522173686 0.6307079563518808 0.6617522005554498 Pd
  atom_frac 0.6153619522173686 0.6307079563518808 0.7031624686455253 Pd
  atom_frac 0.6948979040245110 0.5511720049219712 0.7031624686455253 Pd
  
  -----------------------------------------------------------------------
  Completed first pass over input file geometry.in .
  -----------------------------------------------------------------------
  

  Basic array size parameters:
  | Number of species                 :        3
  | Number of atoms                   :      246
  | Number of lattice vectors         :        3
  | Max. basis fn. angular momentum   :        3
  | Max. atomic/ionic basis occupied n:        5
  | Max. number of basis fn. types    :        3
  | Max. radial fns per species/type  :       10
  | Max. logarithmic grid size        :     1444
  | Max. radial integration grid size :       62
  | Max. angular integration grid size:      302
  | Max. angular grid division number :        8
  | Radial grid for Hartree potential :     1444
  | Number of spin channels           :        1

------------------------------------------------------------
          Reading file control.in.
------------------------------------------------------------
  Pre-SCF XC: Using PBE gradient-corrected functionals.
  Spin treatment: No spin polarisation.
  Scalar relativistic treatment of kinetic energy: on-site free-atom approximation to ZORA.
  Convergence accuracy of total energy:  0.1000E-02
  Convergence accuracy of sum of eigenvalues:  0.1000E-02
  Convergence accuracy of self-consistent charge density:  0.1000E-05
  Convergence accuracy of forces:  0.1000E-03
  XC: Using LibXC. Please refer to LibXC output for further details.
  Using libxc - Initializing
  Libxc version: 6.1.0


  ** PLEASE ** be careful using LibXC. Whilst most of the LDA, GGA and MGGA functionals,
  and hybrid variations therein, should be stable (though we always recommend testing!),
  there are several fancy functionals with e.g. range-separation, like HSE03/HSE06/LC-PBEh,
  and also MGGA functionals that depend on the laplacian of the density, like BR89,
  that are not fully implemented due to the infrastrucutre for these functionals being incomplete or non-generic.
  If you want to use these functionals please contact the development team and we will work on them with you!

  You have selected libxc functional MGGA_X_MBEEF (249)
    - Description: mBEEF exchange
    - Type: MGGA(Exchange)
    - Reference to Literature:
      [1] J. Wellendorff, K. T. Lundgaard, K. W. Jacobsen, and T. Bligaard.,  J. Chem. Phys. 140, 144107 (2014)

  You have selected libxc functional GGA_C_PBE_SOL (133)
    - Description: Perdew, Burke & Ernzerhof SOL
    - Type: GGA(Correlation)
    - Reference to Literature:
      [1] J. P. Perdew, A. Ruzsinszky, G. I. Csonka, O. A. Vydrov, G. E. Scuseria, L. A. Constantin, X. Zhou, and K. Burke.,  Phys. Rev. Lett. 100, 136406 (2008)

  Switching on meta-ggas
  Using dipole correction.
  Found k-point grid:         3         3         1
  Using external wrapper (i-PI) for performing (path integral) molecular dynamics
  **Attention: initial geometry.in file will be ignored!
 
  Reading configuration options for species O                   .
  | Found nuclear charge :   8.0000
  | Found atomic mass :    15.9994000000000      amu
  | Found l_max for Hartree potential  :   4
  | Found cutoff potl. onset [A], width [A], scale factor :    3.50000    1.50000    1.00000
  | Threshold for basis-dependent cutoff potential is   0.100000E-03
  | Found data for basic radial integration grid :    36 points, outermost radius =    5.000 A
  | Found multiplier for basic radial grid :   1
  | Found angular grid specification: user-specified.
  | Specified grid contains     5 separate shells.
  | Check grid settings after all constraints further below.
  | Found free-atom valence shell :  2 s   2.000
  | Found free-atom valence shell :  2 p   4.000
  | Found free-ion valence shell :  2 s   1.000
  | Found free-ion valence shell :  2 p   3.000
  | Found hydrogenic basis function :  2 p   1.800
  | Found hydrogenic basis function :  3 d   7.600
  | Found hydrogenic basis function :  3 s   6.400
  Species O                   : Missing cutoff potential type.
  Defaulting to exp(1/x)/(1-x)^2 type cutoff potential.
  Species O : No 'logarithmic' tag. Using default grid for free atom:
  | Default logarithmic grid data [bohr] : 0.1000E-03 0.1000E+03 0.1012E+01
  Species O : On-site basis accuracy parameter (for Gram-Schmidt orthonormalisation) not specified.
  Using default value basis_acc =  0.1000000E-03.
  Species O                   : Using default innermost maximum threshold i_radial=  2 for radial functions.
  Species O                   : Default cutoff onset for free atom density etc. : 0.35000000E+01 AA.
  Species O                   : Basic radial grid will be enhanced according to radial_multiplier =   1, to contain    36 grid points.
 
  Reading configuration options for species Zn                  .
  | Found nuclear charge :  30.0000
  | Found atomic mass :    65.4090000000000      amu
  | Found l_max for Hartree potential  :   4
  | Found cutoff potl. onset [A], width [A], scale factor :    3.50000    1.50000    1.00000
  | Threshold for basis-dependent cutoff potential is   0.100000E-03
  | Found data for basic radial integration grid :    53 points, outermost radius =    5.000 A
  | Found multiplier for basic radial grid :   1
  | Found angular grid specification: user-specified.
  | Specified grid contains     5 separate shells.
  | Check grid settings after all constraints further below.
  | Found free-atom valence shell :  4 s   2.000
  | Found free-atom valence shell :  3 p   6.000
  | Found free-atom valence shell :  3 d  10.000
  | Found free-ion valence shell :  4 s   1.000
  | Found free-ion valence shell :  3 p   6.000
  | Found free-ion valence shell :  3 d   9.000
  | Found hydrogenic basis function :  2 p   1.700
  | Found hydrogenic basis function :  3 s   2.900
  | Found hydrogenic basis function :  4 p   5.400
  | Found hydrogenic basis function :  4 f   7.800
  | Found hydrogenic basis function :  3 d   4.500
  Species Zn                  : Missing cutoff potential type.
  Defaulting to exp(1/x)/(1-x)^2 type cutoff potential.
  Species Zn: No 'logarithmic' tag. Using default grid for free atom:
  | Default logarithmic grid data [bohr] : 0.1000E-03 0.1000E+03 0.1012E+01
  Species Zn: On-site basis accuracy parameter (for Gram-Schmidt orthonormalisation) not specified.
  Using default value basis_acc =  0.1000000E-03.
  Species Zn                  : Using default innermost maximum threshold i_radial=  2 for radial functions.
  Species Zn                  : Default cutoff onset for free atom density etc. : 0.35000000E+01 AA.
  Species Zn                  : Basic radial grid will be enhanced according to radial_multiplier =   1, to contain    53 grid points.
 
  Reading configuration options for species Pd                  .
  | Found nuclear charge :  46.0000
  | Found atomic mass :    106.420000000000      amu
  | Found l_max for Hartree potential  :   4
  | Found cutoff potl. onset [A], width [A], scale factor :    3.50000    1.50000    1.00000
  | Threshold for basis-dependent cutoff potential is   0.100000E-03
  | Found data for basic radial integration grid :    62 points, outermost radius =    5.000 A
  | Found multiplier for basic radial grid :   1
  | Found angular grid specification: user-specified.
  | Specified grid contains     5 separate shells.
  | Check grid settings after all constraints further below.
  | Found free-atom valence shell :  5 s   1.000
  | Found free-atom valence shell :  4 p   6.000
  | Found free-atom valence shell :  4 d   9.000
  | Found free-ion valence shell :  5 s   0.000
  | Found free-ion valence shell :  4 p   6.000
  | Found free-ion valence shell :  4 d   8.000
  | Found ionic basis function :  5 p , default cutoff radius.
  | Found hydrogenic basis function :  4 f   8.000
  | Found hydrogenic basis function :  3 s   2.600
  | Found hydrogenic basis function :  3 d   2.500
  Species Pd                  : Missing cutoff potential type.
  Defaulting to exp(1/x)/(1-x)^2 type cutoff potential.
  Species Pd: No 'logarithmic' tag. Using default grid for free atom:
  | Default logarithmic grid data [bohr] : 0.1000E-03 0.1000E+03 0.1012E+01
  | Will include ionic basis functions of  2.0-fold positive Pd                   ion.
  Species Pd: On-site basis accuracy parameter (for Gram-Schmidt orthonormalisation) not specified.
  Using default value basis_acc =  0.1000000E-03.
  Species Pd                  : Using default innermost maximum threshold i_radial=  2 for radial functions.
  Species Pd                  : Default cutoff onset for free atom density etc. : 0.35000000E+01 AA.
  Species Pd                  : Basic radial grid will be enhanced according to radial_multiplier =   1, to contain    62 grid points.
 
  Finished reading input file 'control.in'.
 
------------------------------------------------------------


------------------------------------------------------------
          Reading geometry description geometry.in.
------------------------------------------------------------
 No relaxation requested - ignoring relaxation constraint.
 No relaxation requested - ignoring relaxation constraint.
 No relaxation requested - ignoring relaxation constraint.
 No relaxation requested - ignoring relaxation constraint.
 No relaxation requested - ignoring relaxation constraint.
 No relaxation requested - ignoring relaxation constraint.
 No relaxation requested - ignoring relaxation constraint.
 No relaxation requested - ignoring relaxation constraint.
 No relaxation requested - ignoring relaxation constraint.
 No relaxation requested - ignoring relaxation constraint.
 No relaxation requested - ignoring relaxation constraint.
 No relaxation requested - ignoring relaxation constraint.
 No relaxation requested - ignoring relaxation constraint.
 No relaxation requested - ignoring relaxation constraint.
 No relaxation requested - ignoring relaxation constraint.
 No relaxation requested - ignoring relaxation constraint.
 No relaxation requested - ignoring relaxation constraint.
 No relaxation requested - ignoring relaxation constraint.
 No relaxation requested - ignoring relaxation constraint.
 No relaxation requested - ignoring relaxation constraint.
 No relaxation requested - ignoring relaxation constraint.
 No relaxation requested - ignoring relaxation constraint.
 No relaxation requested - ignoring relaxation constraint.
 No relaxation requested - ignoring relaxation constraint.
 No relaxation requested - ignoring relaxation constraint.
 No relaxation requested - ignoring relaxation constraint.
 No relaxation requested - ignoring relaxation constraint.
 No relaxation requested - ignoring relaxation constraint.
 No relaxation requested - ignoring relaxation constraint.
 No relaxation requested - ignoring relaxation constraint.
 No relaxation requested - ignoring relaxation constraint.
 No relaxation requested - ignoring relaxation constraint.
 No relaxation requested - ignoring relaxation constraint.
 No relaxation requested - ignoring relaxation constraint.
 No relaxation requested - ignoring relaxation constraint.
 No relaxation requested - ignoring relaxation constraint.
 No relaxation requested - ignoring relaxation constraint.
 No relaxation requested - ignoring relaxation constraint.
 No relaxation requested - ignoring relaxation constraint.
 No relaxation requested - ignoring relaxation constraint.
 No relaxation requested - ignoring relaxation constraint.
 No relaxation requested - ignoring relaxation constraint.
 No relaxation requested - ignoring relaxation constraint.
 No relaxation requested - ignoring relaxation constraint.
 No relaxation requested - ignoring relaxation constraint.
 No relaxation requested - ignoring relaxation constraint.
 No relaxation requested - ignoring relaxation constraint.
 No relaxation requested - ignoring relaxation constraint.
 No relaxation requested - ignoring relaxation constraint.
 No relaxation requested - ignoring relaxation constraint.
  | The smallest distance between any two atoms is         1.50000000 AA.
  | The first atom of this pair is atom number                    241 .
  | The second atom of this pair is atom number                   242 .
  | Wigner-Seitz cell of the first atom image           0     0     0 .
  | (The Wigner-Seitz cell of the second atom is 0 0 0  by definition.)

  Symmetry information by spglib:
  | Precision set to  0.1E-04
  | Number of Operations  : 1
  | Space group           : 1
  | International         : P1
  | Schoenflies           : C1^1
  Input structure read successfully.
  The structure contains      246 atoms,  and a total of       4944.000 electrons.

  Input geometry:
  | Unit cell:
  |       16.30290000        0.00000000        0.00000000
  |       -8.15145000       14.11872560        0.00000000
  |        0.00000000        0.00000000       36.22290000
  | Atomic structure:
  |       Atom                x [A]            y [A]            z [A]
  |    1: Species O            -6.52107849       13.17743014       10.75231621
  |    2: Species O             1.63037151        4.70619481       10.75231621
  |    3: Species O             0.00008151        7.52993992       10.75231621
  |    4: Species O            -3.26049849       13.17743014       10.75231621
  |    5: Species O             6.52124151        1.88244970       10.75231621
  |    6: Species O             4.89095151        4.70619481       10.75231621
  |    7: Species O             3.26066151        7.52993992       10.75231621
  |    8: Species O             1.63037151       10.35368503       10.75231621
  |    9: Species O             0.00008151       13.17743014       10.75231621
  |   10: Species O             9.78182151        1.88244970       10.75231621
  |   11: Species O             6.52124151        7.52993992       10.75231621
  |   12: Species O             4.89095151       10.35368503       10.75231621
  |   13: Species O             3.26066151       13.17743014       10.75231621
  |   14: Species O            13.04240151        1.88244970       10.75231621
  |   15: Species O            11.41211151        4.70619481       10.75231621
  |   16: Species O             9.78182151        7.52993992       10.75231621
  |   17: Species O             8.15153151       10.35368503       10.75231621
  |   18: Species O             6.52124151       13.17743014       10.75231621
  |   19: Species Zn            4.89078849        6.58878568       11.38114136
  |   20: Species Zn            3.26049849        3.76504057       11.38114136
  |   21: Species Zn            3.26049849        9.41253079       11.38114136
  |   22: Species Zn           -3.26066151        9.41253079       11.38114136
  |   23: Species Zn            1.63020849       12.23627590       11.38114136
  |   24: Species Zn            1.63020849        6.58878568       11.38114136
  |   25: Species Zn           11.41194849        0.94129546       11.38114136
  |   26: Species Zn            1.63020849        0.94129546       11.38114136
  |   27: Species Zn            9.78165849        3.76504057       11.38114136
  |   28: Species Zn           -0.00008151        9.41253079       11.38114136
  |   29: Species Zn            8.15136849        6.58878568       11.38114136
  |   30: Species Zn           -4.89095151       12.23627590       11.38114136
  |   31: Species Zn            6.52107849        9.41253079       11.38114136
  |   32: Species Zn           -1.63037151       12.23627590       11.38114136
  |   33: Species Zn            4.89078849       12.23627590       11.38114136
  |   34: Species Zn           -1.63037151        6.58878568       11.38114136
  |   35: Species Zn           14.67252849        0.94129546       11.38114136
  |   36: Species Zn            8.15136849        0.94129546       11.38114136
  |   37: Species Zn           13.04223849        3.76504057       11.38114136
  |   38: Species Zn            4.89078849        0.94129546       11.38114136
  |   39: Species Zn           11.41194849        6.58878568       11.38114136
  |   40: Species Zn            6.52107849        3.76504057       11.38114136
  |   41: Species Zn            9.78165849        9.41253079       11.38114136
  |   42: Species Zn           -0.00008151        3.76504057       11.38114136
  |   43: Species Zn            8.15136849       12.23627590       11.38114136
  |   44: Species O             9.78165849        3.76504057       13.37460621
  |   45: Species O             1.63020849        6.58878568       13.37460621
  |   46: Species O             6.52107849        3.76504057       13.37460621
  |   47: Species O             8.15136849        6.58878568       13.37460621
  |   48: Species O            -3.26066151        9.41253079       13.37460621
  |   49: Species O             4.89078849        0.94129546       13.37460621
  |   50: Species O             6.52107849        9.41253079       13.37460621
  |   51: Species O             4.89078849        6.58878568       13.37460621
  |   52: Species O            -0.00008151        9.41253079       13.37460621
  |   53: Species O             4.89078849       12.23627590       13.37460621
  |   54: Species O            -1.63037151        6.58878568       13.37460621
  |   55: Species O             3.26049849        9.41253079       13.37460621
  |   56: Species O            14.67252849        0.94129546       13.37460621
  |   57: Species O             1.63020849        0.94129546       13.37460621
  |   58: Species O            -1.63037151       12.23627590       13.37460621
  |   59: Species O            13.04223849        3.76504057       13.37460621
  |   60: Species O             1.63020849       12.23627590       13.37460621
  |   61: Species O             3.26049849        3.76504057       13.37460621
  |   62: Species O            11.41194849        6.58878568       13.37460621
  |   63: Species O            -4.89095151       12.23627590       13.37460621
  |   64: Species O            11.41194849        0.94129546       13.37460621
  |   65: Species O             9.78165849        9.41253079       13.37460621
  |   66: Species O             8.15136849        0.94129546       13.37460621
  |   67: Species O            -0.00008151        3.76504057       13.37460621
  |   68: Species O             8.15136849       12.23627590       13.37460621
  |   69: Species Zn            4.89095151       10.35368503       14.00343136
  |   70: Species Zn            6.52124151        1.88244970       14.00343136
  |   71: Species Zn           -6.52107849       13.17743014       14.00343136
  |   72: Species Zn            0.00008151       13.17743014       14.00343136
  |   73: Species Zn            3.26066151       13.17743014       14.00343136
  |   74: Species Zn           -4.89078849       10.35368503       14.00343136
  |   75: Species Zn           -1.63020849       10.35368503       14.00343136
  |   76: Species Zn            4.89095151        4.70619481       14.00343136
  |   77: Species Zn           13.04240151        1.88244970       14.00343136
  |   78: Species Zn            9.78182151        1.88244970       14.00343136
  |   79: Species Zn            1.63037151        4.70619481       14.00343136
  |   80: Species Zn           -1.63020849        4.70619481       14.00343136
  |   81: Species Zn           11.41211151        4.70619481       14.00343136
  |   82: Species Zn            0.00008151        1.88244970       14.00343136
  |   83: Species Zn            8.15153151        4.70619481       14.00343136
  |   84: Species Zn            3.26066151        7.52993992       14.00343136
  |   85: Species Zn            9.78182151        7.52993992       14.00343136
  |   86: Species Zn           -3.26049849       13.17743014       14.00343136
  |   87: Species Zn            3.26066151        1.88244970       14.00343136
  |   88: Species Zn            6.52124151        7.52993992       14.00343136
  |   89: Species Zn            8.15153151       10.35368503       14.00343136
  |   90: Species Zn            0.00008151        7.52993992       14.00343136
  |   91: Species Zn            1.63037151       10.35368503       14.00343136
  |   92: Species Zn           -3.26049849        7.52993992       14.00343136
  |   93: Species Zn            6.52124151       13.17743014       14.00343136
  |   94: Species O             3.26066151        7.52993992       15.99689621
  |   95: Species O             1.63037151        4.70619481       15.99689621
  |   96: Species O            -4.89078849       10.35368503       15.99689621
  |   97: Species O             6.52124151        1.88244970       15.99689621
  |   98: Species O            13.04240151        1.88244970       15.99689621
  |   99: Species O             8.15153151        4.70619481       15.99689621
  |  100: Species O            -1.63020849       10.35368503       15.99689621
  |  101: Species O             1.63037151       10.35368503       15.99689621
  |  102: Species O             3.26066151        1.88244970       15.99689621
  |  103: Species O            11.41211151        4.70619481       15.99689621
  |  104: Species O            -6.52107849       13.17743014       15.99689621
  |  105: Species O             6.52124151        7.52993992       15.99689621
  |  106: Species O            -1.63020849        4.70619481       15.99689621
  |  107: Species O             4.89095151        4.70619481       15.99689621
  |  108: Species O             9.78182151        7.52993992       15.99689621
  |  109: Species O             0.00008151       13.17743014       15.99689621
  |  110: Species O             0.00008151        7.52993992       15.99689621
  |  111: Species O             4.89095151       10.35368503       15.99689621
  |  112: Species O            -3.26049849       13.17743014       15.99689621
  |  113: Species O             8.15153151       10.35368503       15.99689621
  |  114: Species O            -3.26049849        7.52993992       15.99689621
  |  115: Species O             0.00008151        1.88244970       15.99689621
  |  116: Species O             9.78182151        1.88244970       15.99689621
  |  117: Species O             3.26066151       13.17743014       15.99689621
  |  118: Species O             6.52124151       13.17743014       15.99689621
  |  119: Species Zn           14.67252849        0.94129546       16.62572136
  |  120: Species Zn            1.63020849        0.94129546       16.62572136
  |  121: Species Zn            1.63020849       12.23627590       16.62572136
  |  122: Species Zn            8.15136849        6.58878568       16.62572136
  |  123: Species Zn           -0.00008151        9.41253079       16.62572136
  |  124: Species Zn           -3.26066151        9.41253079       16.62572136
  |  125: Species Zn           13.04223849        3.76504057       16.62572136
  |  126: Species Zn            4.89078849        6.58878568       16.62572136
  |  127: Species Zn            8.15136849        0.94129546       16.62572136
  |  128: Species Zn           -1.63037151        6.58878568       16.62572136
  |  129: Species Zn            6.52107849        9.41253079       16.62572136
  |  130: Species Zn           11.41194849        0.94129546       16.62572136
  |  131: Species Zn           11.41194849        6.58878568       16.62572136
  |  132: Species Zn            1.63020849        6.58878568       16.62572136
  |  133: Species Zn           -4.89095151       12.23627590       16.62572136
  |  134: Species Zn            3.26049849        3.76504057       16.62572136
  |  135: Species Zn            3.26049849        9.41253079       16.62572136
  |  136: Species Zn            4.89078849       12.23627590       16.62572136
  |  137: Species Zn            9.78165849        9.41253079       16.62572136
  |  138: Species Zn           -1.63037151       12.23627590       16.62572136
  |  139: Species Zn            9.78165849        3.76504057       16.62572136
  |  140: Species Zn            6.52107849        3.76504057       16.62572136
  |  141: Species Zn            4.89078849        0.94129546       16.62572136
  |  142: Species Zn           -0.00008151        3.76504057       16.62572136
  |  143: Species Zn            8.15136849       12.23627590       16.62572136
  |  144: Species O            11.41194849        0.94129546       18.61918621
  |  145: Species O             6.52107849        3.76504057       18.61918621
  |  146: Species O             3.26049849        9.41253079       18.61918621
  |  147: Species O            13.04223849        3.76504057       18.61918621
  |  148: Species O             6.52107849        9.41253079       18.61918621
  |  149: Species O            -0.00008151        9.41253079       18.61918621
  |  150: Species O             4.89078849        0.94129546       18.61918621
  |  151: Species O             1.63020849        6.58878568       18.61918621
  |  152: Species O             3.26049849        3.76504057       18.61918621
  |  153: Species O             9.78165849        3.76504057       18.61918621
  |  154: Species O            11.41194849        6.58878568       18.61918621
  |  155: Species O             8.15136849        0.94129546       18.61918621
  |  156: Species O             4.89078849       12.23627590       18.61918621
  |  157: Species O            -3.26066151        9.41253079       18.61918621
  |  158: Species O             1.63020849       12.23627590       18.61918621
  |  159: Species O             4.89078849        6.58878568       18.61918621
  |  160: Species O             1.63020849        0.94129546       18.61918621
  |  161: Species O             9.78165849        9.41253079       18.61918621
  |  162: Species O            -0.00008151        3.76504057       18.61918621
  |  163: Species O             8.15136849        6.58878568       18.61918621
  |  164: Species O            14.67252849        0.94129546       18.61918621
  |  165: Species O            -1.63037151       12.23627590       18.61918621
  |  166: Species O            -4.89095151       12.23627590       18.61918621
  |  167: Species O            -1.63037151        6.58878568       18.61918621
  |  168: Species O             8.15136849       12.23627590       18.61918621
  |  169: Species Zn           11.41211151        4.70619481       19.24801136
  |  170: Species Zn            8.15153151        4.70619481       19.24801136
  |  171: Species Zn            0.00008151       13.17743014       19.24801136
  |  172: Species Zn           -1.63020849       10.35368503       19.24801136
  |  173: Species Zn            0.00008151        7.52993992       19.24801136
  |  174: Species Zn           -1.63020849        4.70619481       19.24801136
  |  175: Species Zn            3.26066151       13.17743014       19.24801136
  |  176: Species Zn            4.89095151        4.70619481       19.24801136
  |  177: Species Zn            9.78182151        7.52993992       19.24801136
  |  178: Species Zn           -6.52107849       13.17743014       19.24801136
  |  179: Species Zn           -4.89078849       10.35368503       19.24801136
  |  180: Species Zn            6.52124151        7.52993992       19.24801136
  |  181: Species Zn            1.63037151       10.35368503       19.24801136
  |  182: Species Zn            9.78182151        1.88244970       19.24801136
  |  183: Species Zn            0.00008151        1.88244970       19.24801136
  |  184: Species Zn           13.04240151        1.88244970       19.24801136
  |  185: Species Zn            8.15153151       10.35368503       19.24801136
  |  186: Species Zn            6.52124151        1.88244970       19.24801136
  |  187: Species Zn            3.26066151        1.88244970       19.24801136
  |  188: Species Zn           -3.26049849        7.52993992       19.24801136
  |  189: Species Zn           -3.26049849       13.17743014       19.24801136
  |  190: Species Zn            4.89095151       10.35368503       19.24801136
  |  191: Species Zn            3.26066151        7.52993992       19.24801136
  |  192: Species Zn            1.63037151        4.70619481       19.24801136
  |  193: Species Zn            6.52124151       13.17743014       19.24801136
  |  194: Species O            -1.63020849       10.35368503       21.24147621
  |  195: Species O             3.26066151       13.17743014       21.24147621
  |  196: Species O             9.78182151        1.88244970       21.24147621
  |  197: Species O             6.52124151        7.52993992       21.24147621
  |  198: Species O             0.00008151        1.88244970       21.24147621
  |  199: Species O            -1.63020849        4.70619481       21.24147621
  |  200: Species O             9.78182151        7.52993992       21.24147621
  |  201: Species O             3.26066151        7.52993992       21.24147621
  |  202: Species O             3.26066151        1.88244970       21.24147621
  |  203: Species O            -4.89078849       10.35368503       21.24147621
  |  204: Species O            -6.52107849       13.17743014       21.24147621
  |  205: Species O            13.04240151        1.88244970       21.24147621
  |  206: Species O             0.00008151       13.17743014       21.24147621
  |  207: Species O             4.89095151        4.70619481       21.24147621
  |  208: Species O             4.89095151       10.35368503       21.24147621
  |  209: Species O             8.15153151       10.35368503       21.24147621
  |  210: Species O             8.15153151        4.70619481       21.24147621
  |  211: Species O             1.63037151        4.70619481       21.24147621
  |  212: Species O            -3.26049849        7.52993992       21.24147621
  |  213: Species O             6.52124151        1.88244970       21.24147621
  |  214: Species O             0.00008151        7.52993992       21.24147621
  |  215: Species O            11.41211151        4.70619481       21.24147621
  |  216: Species O             1.63037151       10.35368503       21.24147621
  |  217: Species O            -3.26049849       13.17743014       21.24147621
  |  218: Species O             6.52124151       13.17743014       21.24147621
  |  219: Species Zn           11.41194849        6.58878568       21.87030136
  |  220: Species Zn           -1.63037151        6.58878568       21.87030136
  |  221: Species Zn           14.67252849        0.94129546       21.87030136
  |  222: Species Zn            3.26049849        9.41253079       21.87030136
  |  223: Species Zn            3.26049849        3.76504057       21.87030136
  |  224: Species Zn           -3.26066151        9.41253079       21.87030136
  |  225: Species Zn           -0.00008151        3.76504057       21.87030136
  |  226: Species Zn            4.89078849        6.58878568       21.87030136
  |  227: Species Zn            9.78165849        9.41253079       21.87030136
  |  228: Species Zn           11.41194849        0.94129546       21.87030136
  |  229: Species Zn            4.89078849        0.94129546       21.87030136
  |  230: Species Zn           13.04223849        3.76504057       21.87030136
  |  231: Species Zn            8.15136849        6.58878568       21.87030136
  |  232: Species Zn            4.89078849       12.23627590       21.87030136
  |  233: Species Zn            6.52107849        3.76504057       21.87030136
  |  234: Species Zn           -0.00008151        9.41253079       21.87030136
  |  235: Species Zn            8.15136849        0.94129546       21.87030136
  |  236: Species Zn            8.15136849       12.23627590       21.87030136
  |  237: Species Pd            2.94600000        5.53595375       23.97058379
  |  238: Species Pd            2.94600000        5.53595375       25.47058379
  |  239: Species Pd            4.89100000        4.41300748       25.47058379
  |  240: Species Pd            2.94600000        7.78184630       25.47058379
  |  241: Species Pd            6.83600000        5.53595375       23.97058379
  |  242: Species Pd            6.83600000        5.53595375       25.47058379
  |  243: Species Pd            4.89100000        6.65890002       23.97058379
  |  244: Species Pd            4.89100000        8.90479257       23.97058379
  |  245: Species Pd            4.89100000        8.90479257       25.47058379
  |  246: Species Pd            6.83600000        7.78184630       25.47058379

  Lattice parameters for 3D lattice (in Angstroms) :    16.302900   16.302900   36.222900
  Angle(s) between unit vectors (in degrees)       :    90.000000   90.000000  120.000000


  Quantities derived from the lattice vectors (in Angstrom^-1):
  | Reciprocal lattice vector 1:  0.385403  0.222512  0.000000
  | Reciprocal lattice vector 2: -0.000000  0.445025  0.000000
  | Reciprocal lattice vector 3:  0.000000  0.000000  0.173459
  | Unit cell volume                               :   0.833765E+04  Angstrom^3

  Fractional coordinates:
                         L1                L2                L3
       atom_frac         0.06667000        0.93333000        0.29683753  O
       atom_frac         0.26667000        0.33333000        0.29683753  O
       atom_frac         0.26667000        0.53333000        0.29683753  O
       atom_frac         0.26667000        0.93333000        0.29683753  O
       atom_frac         0.46667000        0.13333000        0.29683753  O
       atom_frac         0.46667000        0.33333000        0.29683753  O
       atom_frac         0.46667000        0.53333000        0.29683753  O
       atom_frac         0.46667000        0.73333000        0.29683753  O
       atom_frac         0.46667000        0.93333000        0.29683753  O
       atom_frac         0.66667000        0.13333000        0.29683753  O
       atom_frac         0.66667000        0.53333000        0.29683753  O
       atom_frac         0.66667000        0.73333000        0.29683753  O
       atom_frac         0.66667000        0.93333000        0.29683753  O
       atom_frac         0.86667000        0.13333000        0.29683753  O
       atom_frac         0.86667000        0.33333000        0.29683753  O
       atom_frac         0.86667000        0.53333000        0.29683753  O
       atom_frac         0.86667000        0.73333000        0.29683753  O
       atom_frac         0.86667000        0.93333000        0.29683753  O
       atom_frac         0.53333000        0.46667000        0.31419741  Zn
       atom_frac         0.33333000        0.26667000        0.31419741  Zn
       atom_frac         0.53333000        0.66667000        0.31419741  Zn
       atom_frac         0.13333000        0.66667000        0.31419741  Zn
       atom_frac         0.53333000        0.86667000        0.31419741  Zn
       atom_frac         0.33333000        0.46667000        0.31419741  Zn
       atom_frac         0.73333000        0.06667000        0.31419741  Zn
       atom_frac         0.13333000        0.06667000        0.31419741  Zn
       atom_frac         0.73333000        0.26667000        0.31419741  Zn
       atom_frac         0.33333000        0.66667000        0.31419741  Zn
       atom_frac         0.73333000        0.46667000        0.31419741  Zn
       atom_frac         0.13333000        0.86667000        0.31419741  Zn
       atom_frac         0.73333000        0.66667000        0.31419741  Zn
       atom_frac         0.33333000        0.86667000        0.31419741  Zn
       atom_frac         0.73333000        0.86667000        0.31419741  Zn
       atom_frac         0.13333000        0.46667000        0.31419741  Zn
       atom_frac         0.93333000        0.06667000        0.31419741  Zn
       atom_frac         0.53333000        0.06667000        0.31419741  Zn
       atom_frac         0.93333000        0.26667000        0.31419741  Zn
       atom_frac         0.33333000        0.06667000        0.31419741  Zn
       atom_frac         0.93333000        0.46667000        0.31419741  Zn
       atom_frac         0.53333000        0.26667000        0.31419741  Zn
       atom_frac         0.93333000        0.66667000        0.31419741  Zn
       atom_frac         0.13333000        0.26667000        0.31419741  Zn
       atom_frac         0.93333000        0.86667000        0.31419741  Zn
       atom_frac         0.73333000        0.26667000        0.36923069  O
       atom_frac         0.33333000        0.46667000        0.36923069  O
       atom_frac         0.53333000        0.26667000        0.36923069  O
       atom_frac         0.73333000        0.46667000        0.36923069  O
       atom_frac         0.13333000        0.66667000        0.36923069  O
       atom_frac         0.33333000        0.06667000        0.36923069  O
       atom_frac         0.73333000        0.66667000        0.36923069  O
       atom_frac         0.53333000        0.46667000        0.36923069  O
       atom_frac         0.33333000        0.66667000        0.36923069  O
       atom_frac         0.73333000        0.86667000        0.36923069  O
       atom_frac         0.13333000        0.46667000        0.36923069  O
       atom_frac         0.53333000        0.66667000        0.36923069  O
       atom_frac         0.93333000        0.06667000        0.36923069  O
       atom_frac         0.13333000        0.06667000        0.36923069  O
       atom_frac         0.33333000        0.86667000        0.36923069  O
       atom_frac         0.93333000        0.26667000        0.36923069  O
       atom_frac         0.53333000        0.86667000        0.36923069  O
       atom_frac         0.33333000        0.26667000        0.36923069  O
       atom_frac         0.93333000        0.46667000        0.36923069  O
       atom_frac         0.13333000        0.86667000        0.36923069  O
       atom_frac         0.73333000        0.06667000        0.36923069  O
       atom_frac         0.93333000        0.66667000        0.36923069  O
       atom_frac         0.53333000        0.06667000        0.36923069  O
       atom_frac         0.13333000        0.26667000        0.36923069  O
       atom_frac         0.93333000        0.86667000        0.36923069  O
       atom_frac         0.66667000        0.73333000        0.38659056  Zn
       atom_frac         0.46667000        0.13333000        0.38659056  Zn
       atom_frac         0.06667000        0.93333000        0.38659056  Zn
       atom_frac         0.46667000        0.93333000        0.38659056  Zn
       atom_frac         0.66667000        0.93333000        0.38659056  Zn
       atom_frac         0.06667000        0.73333000        0.38659056  Zn
       atom_frac         0.26667000        0.73333000        0.38659056  Zn
       atom_frac         0.46667000        0.33333000        0.38659056  Zn
       atom_frac         0.86667000        0.13333000        0.38659056  Zn
       atom_frac         0.66667000        0.13333000        0.38659056  Zn
       atom_frac         0.26667000        0.33333000        0.38659056  Zn
       atom_frac         0.06667000        0.33333000        0.38659056  Zn
       atom_frac         0.86667000        0.33333000        0.38659056  Zn
       atom_frac         0.06667000        0.13333000        0.38659056  Zn
       atom_frac         0.66667000        0.33333000        0.38659056  Zn
       atom_frac         0.46667000        0.53333000        0.38659056  Zn
       atom_frac         0.86667000        0.53333000        0.38659056  Zn
       atom_frac         0.26667000        0.93333000        0.38659056  Zn
       atom_frac         0.26667000        0.13333000        0.38659056  Zn
       atom_frac         0.66667000        0.53333000        0.38659056  Zn
       atom_frac         0.86667000        0.73333000        0.38659056  Zn
       atom_frac         0.26667000        0.53333000        0.38659056  Zn
       atom_frac         0.46667000        0.73333000        0.38659056  Zn
       atom_frac         0.06667000        0.53333000        0.38659056  Zn
       atom_frac         0.86667000        0.93333000        0.38659056  Zn
       atom_frac         0.46667000        0.53333000        0.44162384  O
       atom_frac         0.26667000        0.33333000        0.44162384  O
       atom_frac         0.06667000        0.73333000        0.44162384  O
       atom_frac         0.46667000        0.13333000        0.44162384  O
       atom_frac         0.86667000        0.13333000        0.44162384  O
       atom_frac         0.66667000        0.33333000        0.44162384  O
       atom_frac         0.26667000        0.73333000        0.44162384  O
       atom_frac         0.46667000        0.73333000        0.44162384  O
       atom_frac         0.26667000        0.13333000        0.44162384  O
       atom_frac         0.86667000        0.33333000        0.44162384  O
       atom_frac         0.06667000        0.93333000        0.44162384  O
       atom_frac         0.66667000        0.53333000        0.44162384  O
       atom_frac         0.06667000        0.33333000        0.44162384  O
       atom_frac         0.46667000        0.33333000        0.44162384  O
       atom_frac         0.86667000        0.53333000        0.44162384  O
       atom_frac         0.46667000        0.93333000        0.44162384  O
       atom_frac         0.26667000        0.53333000        0.44162384  O
       atom_frac         0.66667000        0.73333000        0.44162384  O
       atom_frac         0.26667000        0.93333000        0.44162384  O
       atom_frac         0.86667000        0.73333000        0.44162384  O
       atom_frac         0.06667000        0.53333000        0.44162384  O
       atom_frac         0.06667000        0.13333000        0.44162384  O
       atom_frac         0.66667000        0.13333000        0.44162384  O
       atom_frac         0.66667000        0.93333000        0.44162384  O
       atom_frac         0.86667000        0.93333000        0.44162384  O
       atom_frac         0.93333000        0.06667000        0.45898372  Zn
       atom_frac         0.13333000        0.06667000        0.45898372  Zn
       atom_frac         0.53333000        0.86667000        0.45898372  Zn
       atom_frac         0.73333000        0.46667000        0.45898372  Zn
       atom_frac         0.33333000        0.66667000        0.45898372  Zn
       atom_frac         0.13333000        0.66667000        0.45898372  Zn
       atom_frac         0.93333000        0.26667000        0.45898372  Zn
       atom_frac         0.53333000        0.46667000        0.45898372  Zn
       atom_frac         0.53333000        0.06667000        0.45898372  Zn
       atom_frac         0.13333000        0.46667000        0.45898372  Zn
       atom_frac         0.73333000        0.66667000        0.45898372  Zn
       atom_frac         0.73333000        0.06667000        0.45898372  Zn
       atom_frac         0.93333000        0.46667000        0.45898372  Zn
       atom_frac         0.33333000        0.46667000        0.45898372  Zn
       atom_frac         0.13333000        0.86667000        0.45898372  Zn
       atom_frac         0.33333000        0.26667000        0.45898372  Zn
       atom_frac         0.53333000        0.66667000        0.45898372  Zn
       atom_frac         0.73333000        0.86667000        0.45898372  Zn
       atom_frac         0.93333000        0.66667000        0.45898372  Zn
       atom_frac         0.33333000        0.86667000        0.45898372  Zn
       atom_frac         0.73333000        0.26667000        0.45898372  Zn
       atom_frac         0.53333000        0.26667000        0.45898372  Zn
       atom_frac         0.33333000        0.06667000        0.45898372  Zn
       atom_frac         0.13333000        0.26667000        0.45898372  Zn
       atom_frac         0.93333000        0.86667000        0.45898372  Zn
       atom_frac         0.73333000        0.06667000        0.51401700  O
       atom_frac         0.53333000        0.26667000        0.51401700  O
       atom_frac         0.53333000        0.66667000        0.51401700  O
       atom_frac         0.93333000        0.26667000        0.51401700  O
       atom_frac         0.73333000        0.66667000        0.51401700  O
       atom_frac         0.33333000        0.66667000        0.51401700  O
       atom_frac         0.33333000        0.06667000        0.51401700  O
       atom_frac         0.33333000        0.46667000        0.51401700  O
       atom_frac         0.33333000        0.26667000        0.51401700  O
       atom_frac         0.73333000        0.26667000        0.51401700  O
       atom_frac         0.93333000        0.46667000        0.51401700  O
       atom_frac         0.53333000        0.06667000        0.51401700  O
       atom_frac         0.73333000        0.86667000        0.51401700  O
       atom_frac         0.13333000        0.66667000        0.51401700  O
       atom_frac         0.53333000        0.86667000        0.51401700  O
[...]
  | In systems with a gap, the physically relevant chemical potential is the VBM or HOMO.

  | Chemical potential (Fermi level):    -5.12817587 eV
  What follows are estimated values for band gap, HOMO, LUMO, etc.
  | They are estimated on a discrete k-point grid and not necessarily exact.
  | For converged numbers, create a DOS and/or band structure plot on a denser k-grid.

  Highest occupied state (VBM) at     -5.13253357 eV (relative to internal zero)
  | Occupation number:      1.09809418
  | K-point:       2 at    0.000000    0.333333    0.000000 (in units of recip. lattice)

  Lowest unoccupied state (CBM) at    -5.11654375 eV (relative to internal zero)
  | Occupation number:      0.74215109
  | K-point:       4 at    0.333333    0.666667    0.000000 (in units of recip. lattice)

  ESTIMATED overall HOMO-LUMO gap:      0.01598982 eV between HOMO at k-point 2 and LUMO at k-point 4
  | This appears to be an indirect band gap.
  | Smallest direct gap :      0.02265489 eV for k_point 2 at    0.000000    0.333333    0.000000 (in units of recip. lattice)
  However, this system has fractional occupation numbers. Since we use a finite k-point grid,
  this material is metallic within the approximate finite broadening function (occupation_type)
  applied to determine the occupation numbers.

  Total energy components:
  | Sum of eigenvalues            :     -159330.53142102 Ha    -4335604.35308671 eV
  | XC energy correction          :      -10919.84894179 Ha     -297144.20823705 eV
  | XC potential correction       :       14187.20458299 Ha      386053.47888781 eV
  | Free-atom electrostatic energy:     -116661.45699918 Ha    -3174519.76273499 eV
  | Hartree energy correction     :        -189.44041518 Ha       -5154.93597731 eV
  | Entropy correction            :          -0.00145186 Ha          -0.03950716 eV
  | ---------------------------
  | Total energy                  :     -272914.07319419 Ha    -7426369.78114824 eV
  | Total energy, T -> 0          :     -272914.07464605 Ha    -7426369.82065540 eV  <-- do not rely on this value for anything but (periodic) metals
  | Electronic free energy        :     -272914.07609791 Ha    -7426369.86016256 eV

  Derived energy quantities:
  | Kinetic energy                :      277763.28851109 Ha     7558323.64365960 eV
  | Electrostatic energy          :     -539757.51276348 Ha   -14687549.21657079 eV
  | Energy correction for multipole
  | error in Hartree potential    :           0.46923564 Ha          12.76855139 eV
  | Sum of eigenvalues per atom                           :      -17624.40793938 eV
  | Total energy (T->0) per atom                          :      -30188.49520592 eV  <-- do not rely on this value for anything but (periodic) metals
  | Electronic free energy per atom                       :      -30188.49536651 eV
  Evaluating new KS density using the density matrix
  Evaluating density matrix
  Finished density matrix calculation
  | Time :     2.276 s
  Time summed over all CPUs for getting density from density matrix: real work      374.696 s, elapsed      394.214 s
  Integration grid: deviation in total charge (<rho> - N_e) =   8.722054E-10

  Self-consistency convergence accuracy:
  | Change of charge density      :  0.1796E+01
  | Change of unmixed KS density  :  0.2017E+00
  | Change of sum of eigenvalues  : -0.1851E+02 eV
  | Change of total energy        :  0.6581E+00 eV


------------------------------------------------------------
  End self-consistency iteration #     6       :  max(cpu_time)    wall_clock(cpu1)
  | Time for this iteration                     :       60.626 s          60.787 s
  | Charge density update                       :       12.910 s          12.946 s
  | Density mixing & preconditioning            :        9.315 s           9.324 s
  | Hartree multipole update                    :        0.016 s           0.016 s
  | Hartree multipole summation                 :        1.927 s           1.932 s
  | Integration                                 :        9.082 s           9.103 s
  | Solution of K.-S. eqns.                     :       27.378 s          27.460 s
  | Total energy evaluation                     :        0.001 s           0.001 s

  Partial memory accounting:
  | Current value for overall tracked memory usage:
  |   Minimum:      344.679 MB (on task 15)
  |   Maximum:      348.046 MB (on task 12)
  |   Average:      346.918 MB
  | Peak value for overall tracked memory usage:
  |   Minimum:      475.698 MB (on task  7 after allocating temp_ham_ovlp)
  |   Maximum:      479.026 MB (on task  0 after allocating temp_ham_ovlp)
  |   Average:      477.914 MB
  | Largest tracked array allocation so far:
  |   Minimum:       79.942 MB (overlap_matrix on task  0)
  |   Maximum:       79.942 MB (overlap_matrix on task  0)
  |   Average:       79.942 MB
  Note:  These values currently only include a subset of arrays which are explicitly tracked.
  The "true" memory usage will be greater.
------------------------------------------------------------

------------------------------------------------------------
          Begin self-consistency iteration #    7

  Date     :  20231127, Time     :  100916.044
------------------------------------------------------------
  Pulay mixing of updated and previous charge densities.
  Available memory per node after mixing [GB]:    124.22
  Renormalizing the density to the exact electron count on the 3D integration grid.
  | Formal number of electrons (from input files) :    4944.0000000000
  | Integrated number of electrons on 3D grid     :    4943.9861950671
  | Charge integration error                      :      -0.0138049329
  | Normalization factor for density and gradient :       1.0000027923

  Evaluating partitioned Hartree potential by multipole expansion.
  | Original multipole sum: apparent total charge =  -0.128833E-10
  | Sum of charges compensated after spline to logarithmic grids =   0.805800E-03
  | Analytical far-field extrapolation by fixed multipoles:
  | Hartree multipole sum: apparent total charge =  -0.128808E-10
  Summing up the Hartree potential.
  Calculating dipole correction via potential gradient
  | Dipole correction gradient                  :     0.07115422 eV/Angstrom
  | Dipole correction potential jump            :    -2.57741214 eV
  Time summed over all CPUs for potential: real work        1.822 s, elapsed        1.845 s
  | RMS charge density error from multipole expansion :   0.318755E-01
  | Average real-space part of the electrostatic potential :      0.12945467 eV

  Integrating Hamiltonian matrix: batch-based integration.
  Time summed over all CPUs for integration: real work      326.381 s, elapsed      338.934 s

  Updating Kohn-Sham eigenvalues and eigenvectors using ELSI and the ELPA eigensolver.
  Starting ELPA eigensolver
  Finished transformation to standard eigenproblem
  | Time :     4.419 s
  Finished solving standard eigenproblem
  | Time :    20.321 s
  Finished back-transformation of eigenvectors
  | Time :     2.249 s

  Obtaining occupation numbers and electronic chemical potential using ELSI.
  | Note that, for insulating systems, the printed 'chemical potential' value is not uniquely defined.
  | It can be anywhere in the energy gap, as long as it correctly separates occupied and unoccupied states.
  | In systems with a gap, the physically relevant chemical potential is the VBM or HOMO.

  | Chemical potential (Fermi level):    -5.20420044 eV
  What follows are estimated values for band gap, HOMO, LUMO, etc.
  | They are estimated on a discrete k-point grid and not necessarily exact.
  | For converged numbers, create a DOS and/or band structure plot on a denser k-grid.

  Highest occupied state (VBM) at     -5.20564560 eV (relative to internal zero)
  | Occupation number:      1.03260479
  | K-point:       3 at    0.333333    0.000000    0.000000 (in units of recip. lattice)

  Lowest unoccupied state (CBM) at    -5.19873523 eV (relative to internal zero)
  | Occupation number:      0.87715284
  | K-point:       2 at    0.000000    0.333333    0.000000 (in units of recip. lattice)

  ESTIMATED overall HOMO-LUMO gap:      0.00691037 eV between HOMO at k-point 3 and LUMO at k-point 2
  | This appears to be an indirect band gap.
  | Smallest direct gap :      0.00798375 eV for k_point 3 at    0.333333    0.000000    0.000000 (in units of recip. lattice)
  However, this system has fractional occupation numbers. Since we use a finite k-point grid,
  this material is metallic within the approximate finite broadening function (occupation_type)
  applied to determine the occupation numbers.

  Total energy components:
  | Sum of eigenvalues            :     -159335.13172006 Ha    -4335729.53359261 eV
  | XC energy correction          :      -10920.02342946 Ha     -297148.95628816 eV
  | XC potential correction       :       14187.43623293 Ha      386059.78240361 eV
  | Free-atom electrostatic energy:     -116661.45699918 Ha    -3174519.76273499 eV
  | Hartree energy correction     :        -184.69540631 Ha       -5025.81771657 eV
  | Entropy correction            :          -0.00185249 Ha          -0.05040879 eV
  | ---------------------------
  | Total energy                  :     -272913.87132208 Ha    -7426364.28792872 eV
  | Total energy, T -> 0          :     -272913.87317457 Ha    -7426364.33833751 eV  <-- do not rely on this value for anything but (periodic) metals
  | Electronic free energy        :     -272913.87502706 Ha    -7426364.38874630 eV

  Derived energy quantities:
  | Kinetic energy                :      277765.49068853 Ha     7558383.56795667 eV
  | Electrostatic energy          :     -539759.33858114 Ha   -14687598.89959722 eV
  | Energy correction for multipole
  | error in Hartree potential    :           0.48167595 Ha          13.10706936 eV
  | Sum of eigenvalues per atom                           :      -17624.91680322 eV
  | Total energy (T->0) per atom                          :      -30188.47292007 eV  <-- do not rely on this value for anything but (periodic) metals
  | Electronic free energy per atom                       :      -30188.47312498 eV
  Evaluating new KS density using the density matrix
  Evaluating density matrix
  Finished density matrix calculation
  | Time :     2.279 s
  Time summed over all CPUs for getting density from density matrix: real work      374.694 s, elapsed      394.230 s
  Integration grid: deviation in total charge (<rho> - N_e) =   8.758434E-10

  Self-consistency convergence accuracy:
  | Change of charge density      :  0.1758E+01
  | Change of unmixed KS density  :  0.1311E+00
  | Change of sum of eigenvalues  : -0.1252E+03 eV
  | Change of total energy        :  0.5493E+01 eV


------------------------------------------------------------
  End self-consistency iteration #     7       :  max(cpu_time)    wall_clock(cpu1)
  | Time for this iteration                     :       60.946 s          61.063 s
  | Charge density update                       :       12.941 s          12.972 s
  | Density mixing & preconditioning            :        9.470 s           9.463 s
  | Hartree multipole update                    :        0.016 s           0.017 s
  | Hartree multipole summation                 :        1.929 s           1.933 s
  | Integration                                 :        9.087 s           9.109 s
  | Solution of K.-S. eqns.                     :       27.498 s          27.564 s
  | Total energy evaluation                     :        0.001 s           0.000 s

  Partial memory accounting:
  | Current value for overall tracked memory usage:
  |   Minimum:      344.679 MB (on task 15)
  |   Maximum:      348.046 MB (on task 12)
  |   Average:      346.918 MB
  | Peak value for overall tracked memory usage:
  |   Minimum:      475.698 MB (on task  7 after allocating temp_ham_ovlp)
  |   Maximum:      479.026 MB (on task  0 after allocating temp_ham_ovlp)
  |   Average:      477.914 MB
  | Largest tracked array allocation so far:
  |   Minimum:       79.942 MB (overlap_matrix on task  0)
  |   Maximum:       79.942 MB (overlap_matrix on task  0)
  |   Average:       79.942 MB
  Note:  These values currently only include a subset of arrays which are explicitly tracked.
  The "true" memory usage will be greater.
------------------------------------------------------------

------------------------------------------------------------
          Begin self-consistency iteration #    8

  Date     :  20231127, Time     :  101017.128
------------------------------------------------------------
  Pulay mixing of updated and previous charge densities.
  Available memory per node after mixing [GB]:    124.07
  Renormalizing the density to the exact electron count on the 3D integration grid.
  | Formal number of electrons (from input files) :    4944.0000000000
  | Integrated number of electrons on 3D grid     :    4943.9930687581
  | Charge integration error                      :      -0.0069312419
  | Normalization factor for density and gradient :       1.0000014020

  Evaluating partitioned Hartree potential by multipole expansion.
  | Original multipole sum: apparent total charge =  -0.164327E-10
  | Sum of charges compensated after spline to logarithmic grids =   0.810108E-03
  | Analytical far-field extrapolation by fixed multipoles:
  | Hartree multipole sum: apparent total charge =  -0.164237E-10
  Summing up the Hartree potential.
  Calculating dipole correction via potential gradient
  | Dipole correction gradient                  :     0.06962811 eV/Angstrom
  | Dipole correction potential jump            :    -2.52213192 eV
  Time summed over all CPUs for potential: real work        1.824 s, elapsed        1.848 s
  | RMS charge density error from multipole expansion :   0.326953E-01
  | Average real-space part of the electrostatic potential :      0.13026367 eV

  Integrating Hamiltonian matrix: batch-based integration.
  Time summed over all CPUs for integration: real work      326.461 s, elapsed      338.937 s

  Updating Kohn-Sham eigenvalues and eigenvectors using ELSI and the ELPA eigensolver.
  Starting ELPA eigensolver
  Finished transformation to standard eigenproblem
  | Time :     4.431 s
  Finished solving standard eigenproblem
  | Time :    20.358 s
  Finished back-transformation of eigenvectors
  | Time :     2.230 s

  Obtaining occupation numbers and electronic chemical potential using ELSI.
  | Note that, for insulating systems, the printed 'chemical potential' value is not uniquely defined.
  | It can be anywhere in the energy gap, as long as it correctly separates occupied and unoccupied states.
  | In systems with a gap, the physically relevant chemical potential is the VBM or HOMO.

  | Chemical potential (Fermi level):    -5.29161513 eV
  What follows are estimated values for band gap, HOMO, LUMO, etc.
  | They are estimated on a discrete k-point grid and not necessarily exact.
  | For converged numbers, create a DOS and/or band structure plot on a denser k-grid.

  Highest occupied state (VBM) at     -5.29280997 eV (relative to internal zero)
  | Occupation number:      1.02695952
  | K-point:       5 at    0.666667    0.666667    0.000000 (in units of recip. lattice)

  Lowest unoccupied state (CBM) at    -5.28892146 eV (relative to internal zero)
  | Occupation number:      0.93926908
  | K-point:       4 at    0.333333    0.666667    0.000000 (in units of recip. lattice)

  ESTIMATED overall HOMO-LUMO gap:      0.00388851 eV between HOMO at k-point 5 and LUMO at k-point 4
  | This appears to be an indirect band gap.
  | Smallest direct gap :      0.01308828 eV for k_point 5 at    0.666667    0.666667    0.000000 (in units of recip. lattice)
  However, this system has fractional occupation numbers. Since we use a finite k-point grid,
  this material is metallic within the approximate finite broadening function (occupation_type)
  applied to determine the occupation numbers.

  Total energy components:
  | Sum of eigenvalues            :     -159338.45585020 Ha    -4335819.98777600 eV
  | XC energy correction          :      -10920.10808334 Ha     -297151.25983740 eV
  | XC potential correction       :       14187.54876228 Ha      386062.84448301 eV
  | Free-atom electrostatic energy:     -116661.45699918 Ha    -3174519.76273499 eV
  | Hartree energy correction     :        -181.31189001 Ha       -4933.74755338 eV
  | Entropy correction            :          -0.00202152 Ha          -0.05500839 eV
  | ---------------------------
  | Total energy                  :     -272913.78406045 Ha    -7426361.91341876 eV
  | Total energy, T -> 0          :     -272913.78608197 Ha    -7426361.96842715 eV  <-- do not rely on this value for anything but (periodic) metals
  | Electronic free energy        :     -272913.78810349 Ha    -7426362.02343554 eV

  Derived energy quantities:
  | Kinetic energy                :      277766.58458858 Ha     7558413.33449172 eV
  | Electrostatic energy          :     -539760.26056569 Ha   -14687623.98807307 eV
  | Energy correction for multipole
  | error in Hartree potential    :           0.48781887 Ha          13.27422682 eV
  | Sum of eigenvalues per atom                           :      -17625.28450315 eV
  | Total energy (T->0) per atom                          :      -30188.46328629 eV  <-- do not rely on this value for anything but (periodic) metals
  | Electronic free energy per atom                       :      -30188.46350990 eV
  Evaluating new KS density using the density matrix
  Evaluating density matrix
  Finished density matrix calculation
  | Time :     2.283 s
  Time summed over all CPUs for getting density from density matrix: real work      374.670 s, elapsed      394.475 s
  Integration grid: deviation in total charge (<rho> - N_e) =   8.722054E-10

  Self-consistency convergence accuracy:
  | Change of charge density      :  0.1532E+01
  | Change of unmixed KS density  :  0.5897E+00
  | Change of sum of eigenvalues  : -0.9045E+02 eV
  | Change of total energy        :  0.2375E+01 eV


------------------------------------------------------------
  End self-consistency iteration #     8       :  max(cpu_time)    wall_clock(cpu1)
  | Time for this iteration                     :       60.226 s          60.387 s
  | Charge density update                       :       12.921 s          12.957 s
  | Density mixing & preconditioning            :        8.893 s           8.902 s
  | Hartree multipole update                    :        0.016 s           0.016 s
  | Hartree multipole summation                 :        1.934 s           1.938 s
  | Integration                                 :        9.083 s           9.104 s
  | Solution of K.-S. eqns.                     :       27.380 s          27.465 s
  | Total energy evaluation                     :        0.001 s           0.000 s

  Partial memory accounting:
  | Current value for overall tracked memory usage:
  |   Minimum:      344.679 MB (on task 15)
  |   Maximum:      348.046 MB (on task 12)
  |   Average:      346.918 MB
  | Peak value for overall tracked memory usage:
  |   Minimum:      475.698 MB (on task  7 after allocating temp_ham_ovlp)
  |   Maximum:      479.026 MB (on task  0 after allocating temp_ham_ovlp)
  |   Average:      477.914 MB
  | Largest tracked array allocation so far:
  |   Minimum:       79.942 MB (overlap_matrix on task  0)
  |   Maximum:       79.942 MB (overlap_matrix on task  0)
  |   Average:       79.942 MB
  Note:  These values currently only include a subset of arrays which are explicitly tracked.
  The "true" memory usage will be greater.
------------------------------------------------------------

------------------------------------------------------------
          Begin self-consistency iteration #    9

  Date     :  20231127, Time     :  101117.602
------------------------------------------------------------
  Pulay mixing of updated and previous charge densities.
