   4   4   0   0
  0.1656240E+02  0.4046328E-09  0.4046328E-09  0.4046328E-09  0.5000000E-15
  1.000000000000000E-004
  CAR 
 unknown system                          
     28.61708369     -4.62783051  301      3.68201731      1.00000000
     -4.628  0.0000E+00  0.0000E+00  0.0000E+00  0.0000E+00
     -4.517  0.0000E+00  0.0000E+00  0.0000E+00  0.0000E+00
     -4.406  0.0000E+00  0.0000E+00  0.0000E+00  0.0000E+00
     -4.295  0.0000E+00  0.0000E+00  0.0000E+00  0.0000E+00
     -4.185  0.0000E+00  0.0000E+00  0.0000E+00  0.0000E+00
     -4.074  0.0000E+00  0.0000E+00  0.0000E+00  0.0000E+00
     -3.963  0.0000E+00  0.0000E+00  0.0000E+00  0.0000E+00
     -3.852  0.0000E+00  0.0000E+00  0.0000E+00  0.0000E+00
     -3.741  0.4527E-16  0.4527E-16  0.5017E-17  0.5017E-17
     -3.630  0.1762E-13  0.1762E-13  0.1957E-14  0.1957E-14
     -3.520  0.3744E-11  0.3744E-11  0.4168E-12  0.4168E-12
     -3.409  0.4356E-09  0.4356E-09  0.4869E-10  0.4869E-10
     -3.298  0.2783E-07  0.2783E-07  0.3132E-08  0.3132E-08
     -3.187  0.9791E-06  0.9791E-06  0.1116E-06  0.1116E-06
     -3.076  0.1908E-04  0.1908E-04  0.2226E-05  0.2226E-05
     -2.966  0.2084E-03  0.2084E-03  0.2532E-04  0.2532E-04
     -2.855  0.1316E-02  0.1316E-02  0.1711E-03  0.1711E-03
     -2.744  0.5188E-02  0.5188E-02  0.7460E-03  0.7460E-03
     -2.633  0.1472E-01  0.1472E-01  0.2377E-02  0.2377E-02
     -2.522  0.3394E-01  0.3394E-01  0.6138E-02  0.6138E-02
     -2.412  0.6413E-01  0.6413E-01  0.1324E-01  0.1324E-01
     -2.301  0.9951E-01  0.9951E-01  0.2427E-01  0.2427E-01
     -2.190  0.1297E+00  0.1297E+00  0.3865E-01  0.3865E-01
     -2.079  0.1390E+00  0.1390E+00  0.5405E-01  0.5405E-01
     -1.968  0.1266E+00  0.1266E+00  0.6808E-01  0.6808E-01
     -1.857  0.1176E+00  0.1176E+00  0.8111E-01  0.8111E-01
     -1.747  0.1471E+00  0.1471E+00  0.9741E-01  0.9741E-01
     -1.636  0.2319E+00  0.2319E+00  0.1231E+00  0.1231E+00
     -1.525  0.3228E+00  0.3228E+00  0.1589E+00  0.1589E+00
     -1.414  0.3328E+00  0.3328E+00  0.1958E+00  0.1958E+00
     -1.303  0.2522E+00  0.2522E+00  0.2237E+00  0.2237E+00
     -1.193  0.1975E+00  0.1975E+00  0.2456E+00  0.2456E+00
     -1.082  0.2796E+00  0.2796E+00  0.2766E+00  0.2766E+00
     -0.971  0.4666E+00  0.4666E+00  0.3283E+00  0.3283E+00
     -0.860  0.7474E+00  0.7474E+00  0.4111E+00  0.4111E+00
     -0.749  0.1247E+01  0.1247E+01  0.5493E+00  0.5493E+00
     -0.638  0.1947E+01  0.1947E+01  0.7651E+00  0.7651E+00
     -0.528  0.2691E+01  0.2691E+01  0.1063E+01  0.1063E+01
     -0.417  0.3469E+01  0.3469E+01  0.1448E+01  0.1448E+01
     -0.306  0.4264E+01  0.4264E+01  0.1920E+01  0.1920E+01
     -0.195  0.4809E+01  0.4809E+01  0.2453E+01  0.2453E+01
     -0.084  0.4856E+01  0.4856E+01  0.2991E+01  0.2991E+01
      0.026  0.4696E+01  0.4696E+01  0.3512E+01  0.3512E+01
      0.137  0.4576E+01  0.4576E+01  0.4019E+01  0.4019E+01
      0.248  0.4094E+01  0.4094E+01  0.4473E+01  0.4473E+01
      0.359  0.3462E+01  0.3462E+01  0.4856E+01  0.4856E+01
      0.470  0.3448E+01  0.3448E+01  0.5238E+01  0.5238E+01
      0.581  0.3814E+01  0.3814E+01  0.5661E+01  0.5661E+01
      0.691  0.3920E+01  0.3920E+01  0.6095E+01  0.6095E+01
      0.802  0.3779E+01  0.3779E+01  0.6514E+01  0.6514E+01
      0.913  0.3727E+01  0.3727E+01  0.6927E+01  0.6927E+01
      1.024  0.3912E+01  0.3912E+01  0.7361E+01  0.7361E+01
      1.135  0.4281E+01  0.4281E+01  0.7835E+01  0.7835E+01
      1.245  0.4784E+01  0.4784E+01  0.8365E+01  0.8365E+01
      1.356  0.5315E+01  0.5315E+01  0.8954E+01  0.8954E+01
      1.467  0.5799E+01  0.5799E+01  0.9597E+01  0.9597E+01
      1.578  0.6197E+01  0.6197E+01  0.1028E+02  0.1028E+02
      1.689  0.6109E+01  0.6109E+01  0.1096E+02  0.1096E+02
      1.800  0.5327E+01  0.5327E+01  0.1155E+02  0.1155E+02
      1.910  0.4439E+01  0.4439E+01  0.1204E+02  0.1204E+02
      2.021  0.3977E+01  0.3977E+01  0.1248E+02  0.1248E+02
      2.132  0.3958E+01  0.3958E+01  0.1292E+02  0.1292E+02
      2.243  0.4230E+01  0.4230E+01  0.1339E+02  0.1339E+02
      2.354  0.4462E+01  0.4462E+01  0.1389E+02  0.1389E+02
      2.464  0.4504E+01  0.4504E+01  0.1438E+02  0.1438E+02
      2.575  0.4616E+01  0.4616E+01  0.1490E+02  0.1490E+02
      2.686  0.4733E+01  0.4733E+01  0.1542E+02  0.1542E+02
      2.797  0.4495E+01  0.4495E+01  0.1592E+02  0.1592E+02
      2.908  0.4019E+01  0.4019E+01  0.1636E+02  0.1636E+02
      3.018  0.3855E+01  0.3855E+01  0.1679E+02  0.1679E+02
      3.129  0.4069E+01  0.4069E+01  0.1724E+02  0.1724E+02
      3.240  0.4268E+01  0.4268E+01  0.1771E+02  0.1771E+02
      3.351  0.4452E+01  0.4452E+01  0.1821E+02  0.1821E+02
      3.462  0.4926E+01  0.4926E+01  0.1875E+02  0.1875E+02
      3.573  0.5598E+01  0.5598E+01  0.1937E+02  0.1937E+02
      3.683  0.5712E+01  0.5712E+01  0.2001E+02  0.2001E+02
      3.794  0.4546E+01  0.4546E+01  0.2051E+02  0.2051E+02
      3.905  0.2625E+01  0.2625E+01  0.2080E+02  0.2080E+02
      4.016  0.1147E+01  0.1147E+01  0.2093E+02  0.2093E+02
      4.127  0.5069E+00  0.5069E+00  0.2099E+02  0.2099E+02
      4.237  0.3545E+00  0.3545E+00  0.2102E+02  0.2102E+02
      4.348  0.3322E+00  0.3322E+00  0.2106E+02  0.2106E+02
      4.459  0.4017E+00  0.4017E+00  0.2111E+02  0.2111E+02
      4.570  0.6274E+00  0.6274E+00  0.2118E+02  0.2118E+02
      4.681  0.8396E+00  0.8396E+00  0.2127E+02  0.2127E+02
      4.792  0.8221E+00  0.8221E+00  0.2136E+02  0.2136E+02
      4.902  0.6589E+00  0.6589E+00  0.2143E+02  0.2143E+02
      5.013  0.4751E+00  0.4751E+00  0.2149E+02  0.2149E+02
      5.124  0.2817E+00  0.2817E+00  0.2152E+02  0.2152E+02
      5.235  0.1885E+00  0.1885E+00  0.2154E+02  0.2154E+02
      5.346  0.2618E+00  0.2618E+00  0.2157E+02  0.2157E+02
      5.456  0.4261E+00  0.4261E+00  0.2161E+02  0.2161E+02
      5.567  0.6457E+00  0.6457E+00  0.2169E+02  0.2169E+02
      5.678  0.9012E+00  0.9012E+00  0.2179E+02  0.2179E+02
      5.789  0.9869E+00  0.9869E+00  0.2189E+02  0.2189E+02
      5.900  0.7544E+00  0.7544E+00  0.2198E+02  0.2198E+02
      6.011  0.4489E+00  0.4489E+00  0.2203E+02  0.2203E+02
      6.121  0.3441E+00  0.3441E+00  0.2207E+02  0.2207E+02
      6.232  0.4070E+00  0.4070E+00  0.2211E+02  0.2211E+02
      6.343  0.4798E+00  0.4798E+00  0.2216E+02  0.2216E+02
      6.454  0.4475E+00  0.4475E+00  0.2221E+02  0.2221E+02
      6.565  0.3785E+00  0.3785E+00  0.2226E+02  0.2226E+02
      6.675  0.4229E+00  0.4229E+00  0.2230E+02  0.2230E+02
      6.786  0.5017E+00  0.5017E+00  0.2236E+02  0.2236E+02
      6.897  0.5054E+00  0.5054E+00  0.2241E+02  0.2241E+02
      7.008  0.5066E+00  0.5066E+00  0.2247E+02  0.2247E+02
      7.119  0.5408E+00  0.5408E+00  0.2253E+02  0.2253E+02
      7.230  0.5734E+00  0.5734E+00  0.2259E+02  0.2259E+02
      7.340  0.6807E+00  0.6807E+00  0.2267E+02  0.2267E+02
      7.451  0.9066E+00  0.9066E+00  0.2277E+02  0.2277E+02
      7.562  0.9794E+00  0.9794E+00  0.2288E+02  0.2288E+02
      7.673  0.7055E+00  0.7055E+00  0.2296E+02  0.2296E+02
      7.784  0.3684E+00  0.3684E+00  0.2300E+02  0.2300E+02
      7.894  0.2259E+00  0.2259E+00  0.2302E+02  0.2302E+02
      8.005  0.2247E+00  0.2247E+00  0.2305E+02  0.2305E+02
      8.116  0.2408E+00  0.2408E+00  0.2307E+02  0.2307E+02
      8.227  0.2740E+00  0.2740E+00  0.2310E+02  0.2310E+02
      8.338  0.4034E+00  0.4034E+00  0.2315E+02  0.2315E+02
      8.449  0.5181E+00  0.5181E+00  0.2321E+02  0.2321E+02
      8.559  0.5011E+00  0.5011E+00  0.2326E+02  0.2326E+02
      8.670  0.5236E+00  0.5236E+00  0.2332E+02  0.2332E+02
      8.781  0.6038E+00  0.6038E+00  0.2339E+02  0.2339E+02
      8.892  0.5072E+00  0.5072E+00  0.2344E+02  0.2344E+02
      9.003  0.3050E+00  0.3050E+00  0.2348E+02  0.2348E+02
      9.113  0.2395E+00  0.2395E+00  0.2350E+02  0.2350E+02
      9.224  0.2902E+00  0.2902E+00  0.2354E+02  0.2354E+02
      9.335  0.3352E+00  0.3352E+00  0.2357E+02  0.2357E+02
      9.446  0.3742E+00  0.3742E+00  0.2361E+02  0.2361E+02
      9.557  0.4555E+00  0.4555E+00  0.2366E+02  0.2366E+02
      9.667  0.5683E+00  0.5683E+00  0.2373E+02  0.2373E+02
      9.778  0.5765E+00  0.5765E+00  0.2379E+02  0.2379E+02
      9.889  0.3991E+00  0.3991E+00  0.2384E+02  0.2384E+02
     10.000  0.1974E+00  0.1974E+00  0.2386E+02  0.2386E+02
     10.111  0.1745E+00  0.1745E+00  0.2388E+02  0.2388E+02
     10.222  0.3912E+00  0.3912E+00  0.2392E+02  0.2392E+02
     10.332  0.7042E+00  0.7042E+00  0.2400E+02  0.2400E+02
     10.443  0.8004E+00  0.8004E+00  0.2409E+02  0.2409E+02
     10.554  0.6113E+00  0.6113E+00  0.2415E+02  0.2415E+02
     10.665  0.5097E+00  0.5097E+00  0.2421E+02  0.2421E+02
     10.776  0.7037E+00  0.7037E+00  0.2429E+02  0.2429E+02
     10.886  0.8723E+00  0.8723E+00  0.2439E+02  0.2439E+02
     10.997  0.7936E+00  0.7936E+00  0.2447E+02  0.2447E+02
     11.108  0.7276E+00  0.7276E+00  0.2455E+02  0.2455E+02
     11.219  0.8284E+00  0.8284E+00  0.2465E+02  0.2465E+02
     11.330  0.8875E+00  0.8875E+00  0.2474E+02  0.2474E+02
     11.441  0.7624E+00  0.7624E+00  0.2483E+02  0.2483E+02
     11.551  0.5631E+00  0.5631E+00  0.2489E+02  0.2489E+02
     11.662  0.4247E+00  0.4247E+00  0.2494E+02  0.2494E+02
     11.773  0.3837E+00  0.3837E+00  0.2498E+02  0.2498E+02
     11.884  0.4421E+00  0.4421E+00  0.2503E+02  0.2503E+02
     11.995  0.5287E+00  0.5287E+00  0.2509E+02  0.2509E+02
     12.105  0.5151E+00  0.5151E+00  0.2515E+02  0.2515E+02
     12.216  0.4121E+00  0.4121E+00  0.2519E+02  0.2519E+02
     12.327  0.3531E+00  0.3531E+00  0.2523E+02  0.2523E+02
     12.438  0.4236E+00  0.4236E+00  0.2528E+02  0.2528E+02
     12.549  0.6333E+00  0.6333E+00  0.2535E+02  0.2535E+02
     12.660  0.8079E+00  0.8079E+00  0.2544E+02  0.2544E+02
     12.770  0.7569E+00  0.7569E+00  0.2552E+02  0.2552E+02
     12.881  0.5706E+00  0.5706E+00  0.2558E+02  0.2558E+02
     12.992  0.4665E+00  0.4665E+00  0.2564E+02  0.2564E+02
     13.103  0.6259E+00  0.6259E+00  0.2571E+02  0.2571E+02
     13.214  0.9524E+00  0.9524E+00  0.2581E+02  0.2581E+02
     13.324  0.1060E+01  0.1060E+01  0.2593E+02  0.2593E+02
     13.435  0.9612E+00  0.9612E+00  0.2603E+02  0.2603E+02
     13.546  0.9292E+00  0.9292E+00  0.2614E+02  0.2614E+02
     13.657  0.8259E+00  0.8259E+00  0.2623E+02  0.2623E+02
     13.768  0.5722E+00  0.5722E+00  0.2629E+02  0.2629E+02
     13.879  0.4510E+00  0.4510E+00  0.2634E+02  0.2634E+02
     13.989  0.5660E+00  0.5660E+00  0.2641E+02  0.2641E+02
     14.100  0.7355E+00  0.7355E+00  0.2649E+02  0.2649E+02
     14.211  0.8329E+00  0.8329E+00  0.2658E+02  0.2658E+02
     14.322  0.8133E+00  0.8133E+00  0.2667E+02  0.2667E+02
     14.433  0.7906E+00  0.7906E+00  0.2676E+02  0.2676E+02
     14.543  0.9799E+00  0.9799E+00  0.2687E+02  0.2687E+02
     14.654  0.1236E+01  0.1236E+01  0.2700E+02  0.2700E+02
     14.765  0.1246E+01  0.1246E+01  0.2714E+02  0.2714E+02
     14.876  0.1045E+01  0.1045E+01  0.2726E+02  0.2726E+02
     14.987  0.8818E+00  0.8818E+00  0.2735E+02  0.2735E+02
     15.097  0.8385E+00  0.8385E+00  0.2745E+02  0.2745E+02
     15.208  0.7983E+00  0.7983E+00  0.2754E+02  0.2754E+02
     15.319  0.7384E+00  0.7384E+00  0.2762E+02  0.2762E+02
     15.430  0.8485E+00  0.8485E+00  0.2771E+02  0.2771E+02
     15.541  0.1166E+01  0.1166E+01  0.2784E+02  0.2784E+02
     15.652  0.1362E+01  0.1362E+01  0.2799E+02  0.2799E+02
     15.762  0.1239E+01  0.1239E+01  0.2813E+02  0.2813E+02
     15.873  0.1007E+01  0.1007E+01  0.2824E+02  0.2824E+02
     15.984  0.8550E+00  0.8550E+00  0.2834E+02  0.2834E+02
     16.095  0.8759E+00  0.8759E+00  0.2843E+02  0.2843E+02
     16.206  0.1077E+01  0.1077E+01  0.2855E+02  0.2855E+02
     16.316  0.1174E+01  0.1174E+01  0.2868E+02  0.2868E+02
     16.427  0.9774E+00  0.9774E+00  0.2879E+02  0.2879E+02
     16.538  0.7651E+00  0.7651E+00  0.2887E+02  0.2887E+02
     16.649  0.7940E+00  0.7940E+00  0.2896E+02  0.2896E+02
     16.760  0.9213E+00  0.9213E+00  0.2906E+02  0.2906E+02
     16.871  0.9235E+00  0.9235E+00  0.2917E+02  0.2917E+02
     16.981  0.8746E+00  0.8746E+00  0.2926E+02  0.2926E+02
     17.092  0.9716E+00  0.9716E+00  0.2937E+02  0.2937E+02
     17.203  0.1186E+01  0.1186E+01  0.2950E+02  0.2950E+02
     17.314  0.1248E+01  0.1248E+01  0.2964E+02  0.2964E+02
     17.425  0.1102E+01  0.1102E+01  0.2976E+02  0.2976E+02
     17.535  0.1033E+01  0.1033E+01  0.2988E+02  0.2988E+02
     17.646  0.1091E+01  0.1091E+01  0.3000E+02  0.3000E+02
     17.757  0.1040E+01  0.1040E+01  0.3011E+02  0.3011E+02
     17.868  0.9559E+00  0.9559E+00  0.3022E+02  0.3022E+02
     17.979  0.1091E+01  0.1091E+01  0.3034E+02  0.3034E+02
     18.090  0.1337E+01  0.1337E+01  0.3049E+02  0.3049E+02
     18.200  0.1398E+01  0.1398E+01  0.3064E+02  0.3064E+02
     18.311  0.1246E+01  0.1246E+01  0.3078E+02  0.3078E+02
     18.422  0.1077E+01  0.1077E+01  0.3090E+02  0.3090E+02
     18.533  0.1037E+01  0.1037E+01  0.3102E+02  0.3102E+02
     18.644  0.1141E+01  0.1141E+01  0.3114E+02  0.3114E+02
     18.754  0.1195E+01  0.1195E+01  0.3128E+02  0.3128E+02
     18.865  0.1074E+01  0.1074E+01  0.3139E+02  0.3139E+02
     18.976  0.8640E+00  0.8640E+00  0.3149E+02  0.3149E+02
     19.087  0.6011E+00  0.6011E+00  0.3156E+02  0.3156E+02
     19.198  0.3893E+00  0.3893E+00  0.3160E+02  0.3160E+02
     19.309  0.4726E+00  0.4726E+00  0.3165E+02  0.3165E+02
     19.419  0.9104E+00  0.9104E+00  0.3175E+02  0.3175E+02
     19.530  0.1432E+01  0.1432E+01  0.3191E+02  0.3191E+02
     19.641  0.1600E+01  0.1600E+01  0.3209E+02  0.3209E+02
     19.752  0.1270E+01  0.1270E+01  0.3223E+02  0.3223E+02
     19.863  0.8344E+00  0.8344E+00  0.3232E+02  0.3232E+02
     19.973  0.6894E+00  0.6894E+00  0.3240E+02  0.3240E+02
     20.084  0.7294E+00  0.7294E+00  0.3248E+02  0.3248E+02
     20.195  0.7573E+00  0.7573E+00  0.3256E+02  0.3256E+02
     20.306  0.8995E+00  0.8995E+00  0.3266E+02  0.3266E+02
     20.417  0.1135E+01  0.1135E+01  0.3279E+02  0.3279E+02
     20.527  0.1221E+01  0.1221E+01  0.3292E+02  0.3292E+02
     20.638  0.1196E+01  0.1196E+01  0.3306E+02  0.3306E+02
     20.749  0.1189E+01  0.1189E+01  0.3319E+02  0.3319E+02
     20.860  0.1183E+01  0.1183E+01  0.3332E+02  0.3332E+02
     20.971  0.1113E+01  0.1113E+01  0.3344E+02  0.3344E+02
     21.082  0.8344E+00  0.8344E+00  0.3354E+02  0.3354E+02
     21.192  0.4401E+00  0.4401E+00  0.3358E+02  0.3358E+02
     21.303  0.2646E+00  0.2646E+00  0.3361E+02  0.3361E+02
     21.414  0.3816E+00  0.3816E+00  0.3366E+02  0.3366E+02
     21.525  0.5541E+00  0.5541E+00  0.3372E+02  0.3372E+02
     21.636  0.5900E+00  0.5900E+00  0.3378E+02  0.3378E+02
     21.746  0.5543E+00  0.5543E+00  0.3384E+02  0.3384E+02
     21.857  0.5032E+00  0.5032E+00  0.3390E+02  0.3390E+02
     21.968  0.3759E+00  0.3759E+00  0.3394E+02  0.3394E+02
     22.079  0.2450E+00  0.2450E+00  0.3397E+02  0.3397E+02
     22.190  0.2203E+00  0.2203E+00  0.3399E+02  0.3399E+02
     22.301  0.2524E+00  0.2524E+00  0.3402E+02  0.3402E+02
     22.411  0.2684E+00  0.2684E+00  0.3405E+02  0.3405E+02
     22.522  0.2916E+00  0.2916E+00  0.3408E+02  0.3408E+02
     22.633  0.3271E+00  0.3271E+00  0.3412E+02  0.3412E+02
     22.744  0.3611E+00  0.3611E+00  0.3416E+02  0.3416E+02
     22.855  0.3928E+00  0.3928E+00  0.3420E+02  0.3420E+02
     22.965  0.3621E+00  0.3621E+00  0.3424E+02  0.3424E+02
     23.076  0.2981E+00  0.2981E+00  0.3428E+02  0.3428E+02
     23.187  0.3680E+00  0.3680E+00  0.3432E+02  0.3432E+02
     23.298  0.5671E+00  0.5671E+00  0.3438E+02  0.3438E+02
     23.409  0.6687E+00  0.6687E+00  0.3445E+02  0.3445E+02
     23.520  0.5756E+00  0.5756E+00  0.3452E+02  0.3452E+02
     23.630  0.4549E+00  0.4549E+00  0.3457E+02  0.3457E+02
     23.741  0.5009E+00  0.5009E+00  0.3462E+02  0.3462E+02
     23.852  0.7462E+00  0.7462E+00  0.3471E+02  0.3471E+02
     23.963  0.1030E+01  0.1030E+01  0.3482E+02  0.3482E+02
     24.074  0.1118E+01  0.1118E+01  0.3494E+02  0.3494E+02
     24.184  0.9785E+00  0.9785E+00  0.3505E+02  0.3505E+02
     24.295  0.7708E+00  0.7708E+00  0.3514E+02  0.3514E+02
     24.406  0.5656E+00  0.5656E+00  0.3520E+02  0.3520E+02
     24.517  0.3433E+00  0.3433E+00  0.3524E+02  0.3524E+02
     24.628  0.1780E+00  0.1780E+00  0.3526E+02  0.3526E+02
     24.739  0.1550E+00  0.1550E+00  0.3528E+02  0.3528E+02
     24.849  0.1956E+00  0.1956E+00  0.3530E+02  0.3530E+02
     24.960  0.1783E+00  0.1783E+00  0.3532E+02  0.3532E+02
     25.071  0.1483E+00  0.1483E+00  0.3533E+02  0.3533E+02
     25.182  0.2134E+00  0.2134E+00  0.3536E+02  0.3536E+02
     25.293  0.3267E+00  0.3267E+00  0.3539E+02  0.3539E+02
     25.403  0.3976E+00  0.3976E+00  0.3544E+02  0.3544E+02
     25.514  0.5286E+00  0.5286E+00  0.3550E+02  0.3550E+02
     25.625  0.9019E+00  0.9019E+00  0.3560E+02  0.3560E+02
     25.736  0.1873E+01  0.1873E+01  0.3580E+02  0.3580E+02
     25.847  0.4440E+01  0.4440E+01  0.3630E+02  0.3630E+02
     25.957  0.8737E+01  0.8737E+01  0.3726E+02  0.3726E+02
     26.068  0.1110E+02  0.1110E+02  0.3849E+02  0.3849E+02
     26.179  0.8316E+01  0.8316E+01  0.3942E+02  0.3942E+02
     26.290  0.3600E+01  0.3600E+01  0.3981E+02  0.3981E+02
     26.401  0.9357E+00  0.9357E+00  0.3992E+02  0.3992E+02
     26.512  0.2395E+00  0.2395E+00  0.3994E+02  0.3994E+02
     26.622  0.1941E+00  0.1941E+00  0.3997E+02  0.3997E+02
     26.733  0.1770E+00  0.1770E+00  0.3999E+02  0.3999E+02
     26.844  0.9553E-01  0.9553E-01  0.4000E+02  0.4000E+02
     26.955  0.2884E-01  0.2884E-01  0.4000E+02  0.4000E+02
     27.066  0.4846E-02  0.4846E-02  0.4000E+02  0.4000E+02
     27.176  0.4517E-03  0.4517E-03  0.4000E+02  0.4000E+02
     27.287  0.2329E-04  0.2329E-04  0.4000E+02  0.4000E+02
     27.398  0.6623E-06  0.6623E-06  0.4000E+02  0.4000E+02
     27.509  0.1036E-07  0.1036E-07  0.4000E+02  0.4000E+02
     27.620  0.8894E-10  0.8894E-10  0.4000E+02  0.4000E+02
     27.731  0.4181E-12  0.4181E-12  0.4000E+02  0.4000E+02
     27.841  0.1104E-14  0.1104E-14  0.4000E+02  0.4000E+02
     27.952  0.0000E+00  0.0000E+00  0.4000E+02  0.4000E+02
     28.063  0.0000E+00  0.0000E+00  0.4000E+02  0.4000E+02
     28.174  0.0000E+00  0.0000E+00  0.4000E+02  0.4000E+02
     28.285  0.0000E+00  0.0000E+00  0.4000E+02  0.4000E+02
     28.395  0.0000E+00  0.0000E+00  0.4000E+02  0.4000E+02
     28.506  0.0000E+00  0.0000E+00  0.4000E+02  0.4000E+02
     28.617  0.0000E+00  0.0000E+00  0.4000E+02  0.4000E+02
