 vasp.5.4.4.18Apr17-6-g9f103f2a35 (build Jul 10 2018 00:17:35) complex          
  
 executed on             LinuxIFC date 2022.11.03  09:14:38
 running on   40 total cores
 distrk:  each k-point on   40 cores,    1 groups
 distr:  one band on NCORES_PER_BAND=   1 cores,   40 groups


--------------------------------------------------------------------------------------------------------


 INCAR:
 POTCAR:    PAW_PBE Pd 05Jan2001                  

 ----------------------------------------------------------------------------- 
|                                                                             |
|           W    W    AA    RRRRR   N    N  II  N    N   GGGG   !!!           |
|           W    W   A  A   R    R  NN   N  II  NN   N  G    G  !!!           |
|           W    W  A    A  R    R  N N  N  II  N N  N  G       !!!           |
|           W WW W  AAAAAA  RRRRR   N  N N  II  N  N N  G  GGG   !            |
|           WW  WW  A    A  R   R   N   NN  II  N   NN  G    G                |
|           W    W  A    A  R    R  N    N  II  N    N   GGGG   !!!           |
|                                                                             |
|      For optimal performance we recommend to set                            |
|        NCORE= 4 - approx SQRT( number of cores)                             |
|      NCORE specifies how many cores store one orbital (NPAR=cpu/NCORE).     |
|      This setting can  greatly improve the performance of VASP for DFT.     |
|      The default,   NCORE=1            might be grossly inefficient         |
|      on modern multi-core architectures or massively parallel machines.     |
|      Do your own testing !!!!                                               |
|      Unfortunately you need to use the default for GW and RPA calculations. |
|      (for HF NCORE is supported but not extensively tested yet)             |
|                                                                             |
 ----------------------------------------------------------------------------- 

 POTCAR:    PAW_PBE Pd 05Jan2001                  
   VRHFIN =Pd : s1 d9                                                           
   LEXCH  = PE                                                                  
   EATOM  =   809.7532 eV,   59.5152 Ry                                         
                                                                                
   TITEL  = PAW_PBE Pd 05Jan2001                                                
   LULTRA =        F    use ultrasoft PP ?                                      
   IUNSCR =        1    unscreen: 0-lin 1-nonlin 2-no                           
   RPACOR =    2.000    partial core radius                                     
   POMASS =  106.420; ZVAL   =   10.000    mass and valenz                      
   RCORE  =    2.400    outmost cutoff radius                                   
   RWIGS  =    2.710; RWIGS  =    1.434    wigner-seitz radius (au A)           
   ENMAX  =  250.925; ENMIN  =  188.194 eV                                      
   RCLOC  =    1.862    cutoff for local pot                                    
   LCOR   =        T    correct aug charges                                     
   LPAW   =        T    paw PP                                                  
   EAUG   =  416.230                                                            
   DEXC   =    0.000                                                            
   RMAX   =    2.911    core radius for proj-oper                               
   RAUG   =    1.300    factor for augmentation sphere                          
   RDEP   =    2.405    radius for radial grids                                 
   QCUT   =   -4.294; QGAM   =    8.589    optimization parameters              
                                                                                
   Description                                                                  
     l     E      TYP  RCUT    TYP  RCUT                                        
     2    -6.69     23  2.400                                                   
     2    -8.05     23  2.400                                                   
     0    -4.35     23  2.400                                                   
     0     4.34     23  2.400                                                   
     1    -2.72     23  2.400                                                   
     1    15.84     23  2.400                                                   
  local pseudopotential read in
  partial core-charges read in
  atomic valenz-charges read in
  non local Contribution for L=           2  read in
    real space projection operators read in
  non local Contribution for L=           2  read in
    real space projection operators read in
  non local Contribution for L=           0  read in
    real space projection operators read in
  non local Contribution for L=           0  read in
    real space projection operators read in
  non local Contribution for L=           1  read in
    real space projection operators read in
  non local Contribution for L=           1  read in
    real space projection operators read in
    PAW grid and wavefunctions read in
 
   number of l-projection  operators is LMAX  =           6
   number of lm-projection operators is LMMAX =          18
 
  PAW_PBE Pd 05Jan2001                  :
 energy of atom  1       EATOM= -809.7532
 kinetic energy error for atom=    0.0049 (will be added to EATOM!!)
 
 
 POSCAR: Pd                                      
  positions in cartesian coordinates
  No initial velocities read in
 exchange correlation table for  LEXCH =        8
   RHO(1)=    0.500       N(1)  =     2000
   RHO(2)=  100.500       N(2)  =     4000
 


--------------------------------------------------------------------------------------------------------


 ion  position               nearest neighbor table
   1  0.000  0.000  0.000-   2 2.86   3 2.86   4 2.86   2 2.86   3 2.86   4 2.86   3 2.86   4 2.86
                             2 2.86   4 2.86   3 2.86   2 2.86
   2  0.000  0.500  0.500-   1 2.86   3 2.86   4 2.86   1 2.86   4 2.86   3 2.86   1 2.86   4 2.86
                             3 2.86   4 2.86   1 2.86   3 2.86
   3  0.500  0.000  0.500-   1 2.86   4 2.86   2 2.86   1 2.86   4 2.86   2 2.86   2 2.86   4 2.86
                             1 2.86   2 2.86   1 2.86   4 2.86
   4  0.500  0.500  0.000-   1 2.86   2 2.86   3 2.86   2 2.86   3 2.86   1 2.86   2 2.86   3 2.86
                             1 2.86   3 2.86   1 2.86   2 2.86
 

IMPORTANT INFORMATION: All symmetrisations will be switched off!
NOSYMM: (Re-)initialisation of all symmetry stuff for point group C_1.

 
 
 KPOINTS: KPOINTS created by Atomic Simulation Env

Automatic generation of k-mesh.
Space group operators:
 irot       det(A)        alpha          n_x          n_y          n_z        tau_x        tau_y        tau_z
    1     1.000000     0.000000     1.000000     0.000000     0.000000     0.000000     0.000000     0.000000
 
 Subroutine IBZKPT returns following result:
 ===========================================
 
 Found    172 irreducible k-points:
 
 Following reciprocal coordinates:
            Coordinates               Weight
  0.000000  0.000000  0.000000      1.000000
  0.142857  0.000000 -0.000000      2.000000
  0.285714  0.000000 -0.000000      2.000000
  0.428571 -0.000000 -0.000000      2.000000
  0.000000  0.142857 -0.000000      2.000000
  0.142857  0.142857  0.000000      2.000000
  0.285714  0.142857 -0.000000      2.000000
  0.428571  0.142857 -0.000000      2.000000
 -0.428571  0.142857  0.000000      2.000000
 -0.285714  0.142857  0.000000      2.000000
 -0.142857  0.142857  0.000000      2.000000
  0.000000  0.285714 -0.000000      2.000000
  0.142857  0.285714 -0.000000      2.000000
  0.285714  0.285714  0.000000      2.000000
  0.428571  0.285714 -0.000000      2.000000
 -0.428571  0.285714  0.000000      2.000000
 -0.285714  0.285714 -0.000000      2.000000
 -0.142857  0.285714  0.000000      2.000000
  0.000000  0.428571 -0.000000      2.000000
  0.142857  0.428571 -0.000000      2.000000
  0.285714  0.428571  0.000000      2.000000
  0.428571  0.428571 -0.000000      2.000000
 -0.428571  0.428571  0.000000      2.000000
 -0.285714  0.428571 -0.000000      2.000000
 -0.142857  0.428571 -0.000000      2.000000
  0.000000  0.000000  0.142857      2.000000
  0.142857  0.000000  0.142857      2.000000
  0.285714  0.000000  0.142857      2.000000
  0.428571 -0.000000  0.142857      2.000000
 -0.428571  0.000000  0.142857      2.000000
 -0.285714 -0.000000  0.142857      2.000000
 -0.142857  0.000000  0.142857      2.000000
  0.000000  0.142857  0.142857      2.000000
  0.142857  0.142857  0.142857      2.000000
  0.285714  0.142857  0.142857      2.000000
  0.428571  0.142857  0.142857      2.000000
 -0.428571  0.142857  0.142857      2.000000
 -0.285714  0.142857  0.142857      2.000000
 -0.142857  0.142857  0.142857      2.000000
  0.000000  0.285714  0.142857      2.000000
  0.142857  0.285714  0.142857      2.000000
  0.285714  0.285714  0.142857      2.000000
  0.428571  0.285714  0.142857      2.000000
 -0.428571  0.285714  0.142857      2.000000
 -0.285714  0.285714  0.142857      2.000000
 -0.142857  0.285714  0.142857      2.000000
  0.000000  0.428571  0.142857      2.000000
  0.142857  0.428571  0.142857      2.000000
  0.285714  0.428571  0.142857      2.000000
  0.428571  0.428571  0.142857      2.000000
 -0.428571  0.428571  0.142857      2.000000
 -0.285714  0.428571  0.142857      2.000000
 -0.142857  0.428571  0.142857      2.000000
  0.000000 -0.428571  0.142857      2.000000
  0.142857 -0.428571  0.142857      2.000000
  0.285714 -0.428571  0.142857      2.000000
  0.428571 -0.428571  0.142857      2.000000
 -0.428571 -0.428571  0.142857      2.000000
 -0.285714 -0.428571  0.142857      2.000000
 -0.142857 -0.428571  0.142857      2.000000
  0.000000 -0.285714  0.142857      2.000000
  0.142857 -0.285714  0.142857      2.000000
  0.285714 -0.285714  0.142857      2.000000
  0.428571 -0.285714  0.142857      2.000000
 -0.428571 -0.285714  0.142857      2.000000
 -0.285714 -0.285714  0.142857      2.000000
 -0.142857 -0.285714  0.142857      2.000000
  0.000000 -0.142857  0.142857      2.000000
  0.142857 -0.142857  0.142857      2.000000
  0.285714 -0.142857  0.142857      2.000000
  0.428571 -0.142857  0.142857      2.000000
 -0.428571 -0.142857  0.142857      2.000000
 -0.285714 -0.142857  0.142857      2.000000
 -0.142857 -0.142857  0.142857      2.000000
  0.000000  0.000000  0.285714      2.000000
  0.142857  0.000000  0.285714      2.000000
  0.285714  0.000000  0.285714      2.000000
  0.428571 -0.000000  0.285714      2.000000
 -0.428571  0.000000  0.285714      2.000000
 -0.285714 -0.000000  0.285714      2.000000
 -0.142857  0.000000  0.285714      2.000000
  0.000000  0.142857  0.285714      2.000000
  0.142857  0.142857  0.285714      2.000000
  0.285714  0.142857  0.285714      2.000000
  0.428571  0.142857  0.285714      2.000000
 -0.428571  0.142857  0.285714      2.000000
 -0.285714  0.142857  0.285714      2.000000
 -0.142857  0.142857  0.285714      2.000000
  0.000000  0.285714  0.285714      2.000000
  0.142857  0.285714  0.285714      2.000000
  0.285714  0.285714  0.285714      2.000000
  0.428571  0.285714  0.285714      2.000000
 -0.428571  0.285714  0.285714      2.000000
 -0.285714  0.285714  0.285714      2.000000
 -0.142857  0.285714  0.285714      2.000000
  0.000000  0.428571  0.285714      2.000000
  0.142857  0.428571  0.285714      2.000000
  0.285714  0.428571  0.285714      2.000000
  0.428571  0.428571  0.285714      2.000000
 -0.428571  0.428571  0.285714      2.000000
 -0.285714  0.428571  0.285714      2.000000
 -0.142857  0.428571  0.285714      2.000000
  0.000000 -0.428571  0.285714      2.000000
  0.142857 -0.428571  0.285714      2.000000
  0.285714 -0.428571  0.285714      2.000000
  0.428571 -0.428571  0.285714      2.000000
 -0.428571 -0.428571  0.285714      2.000000
 -0.285714 -0.428571  0.285714      2.000000
 -0.142857 -0.428571  0.285714      2.000000
  0.000000 -0.285714  0.285714      2.000000
  0.142857 -0.285714  0.285714      2.000000
  0.285714 -0.285714  0.285714      2.000000
  0.428571 -0.285714  0.285714      2.000000
 -0.428571 -0.285714  0.285714      2.000000
 -0.285714 -0.285714  0.285714      2.000000
 -0.142857 -0.285714  0.285714      2.000000
  0.000000 -0.142857  0.285714      2.000000
  0.142857 -0.142857  0.285714      2.000000
  0.285714 -0.142857  0.285714      2.000000
  0.428571 -0.142857  0.285714      2.000000
 -0.428571 -0.142857  0.285714      2.000000
 -0.285714 -0.142857  0.285714      2.000000
 -0.142857 -0.142857  0.285714      2.000000
  0.000000  0.000000  0.428571      2.000000
  0.142857  0.000000  0.428571      2.000000
  0.285714  0.000000  0.428571      2.000000
  0.428571 -0.000000  0.428571      2.000000
 -0.428571  0.000000  0.428571      2.000000
 -0.285714 -0.000000  0.428571      2.000000
 -0.142857  0.000000  0.428571      2.000000
  0.000000  0.142857  0.428571      2.000000
  0.142857  0.142857  0.428571      2.000000
  0.285714  0.142857  0.428571      2.000000
  0.428571  0.142857  0.428571      2.000000
 -0.428571  0.142857  0.428571      2.000000
 -0.285714  0.142857  0.428571      2.000000
 -0.142857  0.142857  0.428571      2.000000
  0.000000  0.285714  0.428571      2.000000
  0.142857  0.285714  0.428571      2.000000
  0.285714  0.285714  0.428571      2.000000
  0.428571  0.285714  0.428571      2.000000
 -0.428571  0.285714  0.428571      2.000000
 -0.285714  0.285714  0.428571      2.000000
 -0.142857  0.285714  0.428571      2.000000
  0.000000  0.428571  0.428571      2.000000
  0.142857  0.428571  0.428571      2.000000
  0.285714  0.428571  0.428571      2.000000
  0.428571  0.428571  0.428571      2.000000
 -0.428571  0.428571  0.428571      2.000000
 -0.285714  0.428571  0.428571      2.000000
 -0.142857  0.428571  0.428571      2.000000
  0.000000 -0.428571  0.428571      2.000000
  0.142857 -0.428571  0.428571      2.000000
  0.285714 -0.428571  0.428571      2.000000
  0.428571 -0.428571  0.428571      2.000000
 -0.428571 -0.428571  0.428571      2.000000
 -0.285714 -0.428571  0.428571      2.000000
 -0.142857 -0.428571  0.428571      2.000000
  0.000000 -0.285714  0.428571      2.000000
  0.142857 -0.285714  0.428571      2.000000
  0.285714 -0.285714  0.428571      2.000000
  0.428571 -0.285714  0.428571      2.000000
 -0.428571 -0.285714  0.428571      2.000000
 -0.285714 -0.285714  0.428571      2.000000
 -0.142857 -0.285714  0.428571      2.000000
  0.000000 -0.142857  0.428571      2.000000
  0.142857 -0.142857  0.428571      2.000000
  0.285714 -0.142857  0.428571      2.000000
  0.428571 -0.142857  0.428571      2.000000
 -0.428571 -0.142857  0.428571      2.000000
 -0.285714 -0.142857  0.428571      2.000000
 -0.142857 -0.142857  0.428571      2.000000
 
 Following cartesian coordinates:
            Coordinates               Weight
  0.000000  0.000000  0.000000      1.000000
  0.035305  0.000000  0.000000      2.000000
  0.070611  0.000000  0.000000      2.000000
  0.105916  0.000000  0.000000      2.000000
  0.000000  0.035305  0.000000      2.000000
  0.035305  0.035305  0.000000      2.000000
  0.070611  0.035305  0.000000      2.000000
  0.105916  0.035305  0.000000      2.000000
 -0.105916  0.035305 -0.000000      2.000000
 -0.070611  0.035305 -0.000000      2.000000
 -0.035305  0.035305 -0.000000      2.000000
  0.000000  0.070611  0.000000      2.000000
  0.035305  0.070611  0.000000      2.000000
  0.070611  0.070611  0.000000      2.000000
  0.105916  0.070611  0.000000      2.000000
 -0.105916  0.070611 -0.000000      2.000000
 -0.070611  0.070611 -0.000000      2.000000
 -0.035305  0.070611  0.000000      2.000000
  0.000000  0.105916  0.000000      2.000000
  0.035305  0.105916  0.000000      2.000000
  0.070611  0.105916  0.000000      2.000000
  0.105916  0.105916  0.000000      2.000000
 -0.105916  0.105916 -0.000000      2.000000
 -0.070611  0.105916  0.000000      2.000000
 -0.035305  0.105916  0.000000      2.000000
  0.000000  0.000000  0.035305      2.000000
  0.035305  0.000000  0.035305      2.000000
  0.070611  0.000000  0.035305      2.000000
  0.105916  0.000000  0.035305      2.000000
 -0.105916 -0.000000  0.035305      2.000000
 -0.070611 -0.000000  0.035305      2.000000
 -0.035305 -0.000000  0.035305      2.000000
  0.000000  0.035305  0.035305      2.000000
  0.035305  0.035305  0.035305      2.000000
  0.070611  0.035305  0.035305      2.000000
  0.105916  0.035305  0.035305      2.000000
 -0.105916  0.035305  0.035305      2.000000
 -0.070611  0.035305  0.035305      2.000000
 -0.035305  0.035305  0.035305      2.000000
  0.000000  0.070611  0.035305      2.000000
  0.035305  0.070611  0.035305      2.000000
  0.070611  0.070611  0.035305      2.000000
  0.105916  0.070611  0.035305      2.000000
 -0.105916  0.070611  0.035305      2.000000
 -0.070611  0.070611  0.035305      2.000000
 -0.035305  0.070611  0.035305      2.000000
  0.000000  0.105916  0.035305      2.000000
  0.035305  0.105916  0.035305      2.000000
  0.070611  0.105916  0.035305      2.000000
  0.105916  0.105916  0.035305      2.000000
 -0.105916  0.105916  0.035305      2.000000
 -0.070611  0.105916  0.035305      2.000000
 -0.035305  0.105916  0.035305      2.000000
  0.000000 -0.105916  0.035305      2.000000
  0.035305 -0.105916  0.035305      2.000000
  0.070611 -0.105916  0.035305      2.000000
  0.105916 -0.105916  0.035305      2.000000
 -0.105916 -0.105916  0.035305      2.000000
 -0.070611 -0.105916  0.035305      2.000000
 -0.035305 -0.105916  0.035305      2.000000
  0.000000 -0.070611  0.035305      2.000000
  0.035305 -0.070611  0.035305      2.000000
  0.070611 -0.070611  0.035305      2.000000
  0.105916 -0.070611  0.035305      2.000000
 -0.105916 -0.070611  0.035305      2.000000
 -0.070611 -0.070611  0.035305      2.000000
 -0.035305 -0.070611  0.035305      2.000000
  0.000000 -0.035305  0.035305      2.000000
  0.035305 -0.035305  0.035305      2.000000
  0.070611 -0.035305  0.035305      2.000000
  0.105916 -0.035305  0.035305      2.000000
 -0.105916 -0.035305  0.035305      2.000000
 -0.070611 -0.035305  0.035305      2.000000
 -0.035305 -0.035305  0.035305      2.000000
  0.000000  0.000000  0.070611      2.000000
  0.035305  0.000000  0.070611      2.000000
  0.070611  0.000000  0.070611      2.000000
  0.105916  0.000000  0.070611      2.000000
 -0.105916 -0.000000  0.070611      2.000000
 -0.070611 -0.000000  0.070611      2.000000
 -0.035305 -0.000000  0.070611      2.000000
  0.000000  0.035305  0.070611      2.000000
  0.035305  0.035305  0.070611      2.000000
  0.070611  0.035305  0.070611      2.000000
  0.105916  0.035305  0.070611      2.000000
 -0.105916  0.035305  0.070611      2.000000
 -0.070611  0.035305  0.070611      2.000000
 -0.035305  0.035305  0.070611      2.000000
  0.000000  0.070611  0.070611      2.000000
  0.035305  0.070611  0.070611      2.000000
  0.070611  0.070611  0.070611      2.000000
  0.105916  0.070611  0.070611      2.000000
 -0.105916  0.070611  0.070611      2.000000
 -0.070611  0.070611  0.070611      2.000000
 -0.035305  0.070611  0.070611      2.000000
  0.000000  0.105916  0.070611      2.000000
  0.035305  0.105916  0.070611      2.000000
  0.070611  0.105916  0.070611      2.000000
  0.105916  0.105916  0.070611      2.000000
 -0.105916  0.105916  0.070611      2.000000
 -0.070611  0.105916  0.070611      2.000000
 -0.035305  0.105916  0.070611      2.000000
  0.000000 -0.105916  0.070611      2.000000
  0.035305 -0.105916  0.070611      2.000000
  0.070611 -0.105916  0.070611      2.000000
  0.105916 -0.105916  0.070611      2.000000
 -0.105916 -0.105916  0.070611      2.000000
 -0.070611 -0.105916  0.070611      2.000000
 -0.035305 -0.105916  0.070611      2.000000
  0.000000 -0.070611  0.070611      2.000000
  0.035305 -0.070611  0.070611      2.000000
  0.070611 -0.070611  0.070611      2.000000
  0.105916 -0.070611  0.070611      2.000000
 -0.105916 -0.070611  0.070611      2.000000
 -0.070611 -0.070611  0.070611      2.000000
 -0.035305 -0.070611  0.070611      2.000000
  0.000000 -0.035305  0.070611      2.000000
  0.035305 -0.035305  0.070611      2.000000
  0.070611 -0.035305  0.070611      2.000000
  0.105916 -0.035305  0.070611      2.000000
 -0.105916 -0.035305  0.070611      2.000000
 -0.070611 -0.035305  0.070611      2.000000
 -0.035305 -0.035305  0.070611      2.000000
  0.000000  0.000000  0.105916      2.000000
  0.035305  0.000000  0.105916      2.000000
  0.070611  0.000000  0.105916      2.000000
  0.105916  0.000000  0.105916      2.000000
 -0.105916 -0.000000  0.105916      2.000000
 -0.070611 -0.000000  0.105916      2.000000
 -0.035305 -0.000000  0.105916      2.000000
  0.000000  0.035305  0.105916      2.000000
  0.035305  0.035305  0.105916      2.000000
  0.070611  0.035305  0.105916      2.000000
  0.105916  0.035305  0.105916      2.000000
 -0.105916  0.035305  0.105916      2.000000
 -0.070611  0.035305  0.105916      2.000000
 -0.035305  0.035305  0.105916      2.000000
  0.000000  0.070611  0.105916      2.000000
  0.035305  0.070611  0.105916      2.000000
  0.070611  0.070611  0.105916      2.000000
  0.105916  0.070611  0.105916      2.000000
 -0.105916  0.070611  0.105916      2.000000
 -0.070611  0.070611  0.105916      2.000000
 -0.035305  0.070611  0.105916      2.000000
  0.000000  0.105916  0.105916      2.000000
  0.035305  0.105916  0.105916      2.000000
  0.070611  0.105916  0.105916      2.000000
  0.105916  0.105916  0.105916      2.000000
 -0.105916  0.105916  0.105916      2.000000
 -0.070611  0.105916  0.105916      2.000000
 -0.035305  0.105916  0.105916      2.000000
  0.000000 -0.105916  0.105916      2.000000
  0.035305 -0.105916  0.105916      2.000000
  0.070611 -0.105916  0.105916      2.000000
  0.105916 -0.105916  0.105916      2.000000
 -0.105916 -0.105916  0.105916      2.000000
 -0.070611 -0.105916  0.105916      2.000000
 -0.035305 -0.105916  0.105916      2.000000
  0.000000 -0.070611  0.105916      2.000000
  0.035305 -0.070611  0.105916      2.000000
  0.070611 -0.070611  0.105916      2.000000
  0.105916 -0.070611  0.105916      2.000000
 -0.105916 -0.070611  0.105916      2.000000
 -0.070611 -0.070611  0.105916      2.000000
 -0.035305 -0.070611  0.105916      2.000000
  0.000000 -0.035305  0.105916      2.000000
  0.035305 -0.035305  0.105916      2.000000
  0.070611 -0.035305  0.105916      2.000000
  0.105916 -0.035305  0.105916      2.000000
 -0.105916 -0.035305  0.105916      2.000000
 -0.070611 -0.035305  0.105916      2.000000
 -0.035305 -0.035305  0.105916      2.000000
 


--------------------------------------------------------------------------------------------------------




 Dimension of arrays:
   k-points           NKPTS =    172   k-points in BZ     NKDIM =    172   number of bands    NBANDS=     40
   number of dos      NEDOS =    301   number of ions     NIONS =      4
   non local maximal  LDIM  =      6   non local SUM 2l+1 LMDIM =     18
   total plane-waves  NPLWV =  27000
   max r-space proj   IRMAX =      1   max aug-charges    IRDMAX= 158338
   dimension x,y,z NGX =    30 NGY =   30 NGZ =   30
   dimension x,y,z NGXF=    60 NGYF=   60 NGZF=   60
   support grid    NGXF=   120 NGYF=  120 NGZF=  120
   ions per type =               4
   NGX,Y,Z   is equivalent  to a cutoff of  12.33, 12.33, 12.33 a.u.
   NGXF,Y,Z  is equivalent  to a cutoff of  24.65, 24.65, 24.65 a.u.

 SYSTEM =  unknown system                          
 POSCAR =  Pd                                      

 Startparameter for this run:
   NWRITE =      2    write-flag & timer
   PREC   = accura    normal or accurate (medium, high low for compatibility)
   ISTART =      1    job   : 0-new  1-cont  2-samecut
   ICHARG =      0    charge: 1-file 2-atom 10-const
   ISPIN  =      2    spin polarized calculation?
   LNONCOLLINEAR =      F non collinear calculations
   LSORBIT =      F    spin-orbit coupling
   INIWAV =      1    electr: 0-lowe 1-rand  2-diag
   LASPH  =      F    aspherical Exc in radial PAW
   METAGGA=      F    non-selfconsistent MetaGGA calc.

 Electronic Relaxation 1
   ENCUT  =  500.0 eV  36.75 Ry    6.06 a.u.   7.38  7.38  7.38*2*pi/ulx,y,z
   ENINI  =  500.0     initial cutoff
   ENAUG  =  416.2 eV  augmentation charge cutoff
   NELM   =     60;   NELMIN=  2; NELMDL=  0     # of ELM steps 
   EDIFF  = 0.1E-07   stopping-criterion for ELM
   LREAL  =      F    real-space projection
   NLSPLINE    = F    spline interpolate recip. space projectors
   LCOMPAT=      F    compatible to vasp.4.4
   GGA_COMPAT  = T    GGA compatible to vasp.4.4-vasp.4.6
   LMAXPAW     = -100 max onsite density
   LMAXMIX     =    2 max onsite mixed and CHGCAR
   VOSKOWN=      0    Vosko Wilk Nusair interpolation
   ROPT   =    0.00000
 Ionic relaxation
   EDIFFG = 0.1E-06   stopping-criterion for IOM
   NSW    =      0    number of steps for IOM
   NBLOCK =      1;   KBLOCK =      1    inner block; outer block 
   IBRION =     -1    ionic relax: 0-MD 1-quasi-New 2-CG
   NFREE  =      0    steps in history (QN), initial steepest desc. (CG)
   ISIF   =      2    stress and relaxation
   IWAVPR =     10    prediction:  0-non 1-charg 2-wave 3-comb
   ISYM   =      0    0-nonsym 1-usesym 2-fastsym
   LCORR  =      T    Harris-Foulkes like correction to forces

   POTIM  = 0.5000    time-step for ionic-motion
   TEIN   =    0.0    initial temperature
   TEBEG  =    0.0;   TEEND  =   0.0 temperature during run
   SMASS  =  -3.00    Nose mass-parameter (am)
   estimated Nose-frequenzy (Omega)   =  0.10E-29 period in steps =****** mass=  -0.374E-27a.u.
   SCALEE = 1.0000    scale energy and forces
   NPACO  =    256;   APACO  = 16.0  distance and # of slots for P.C.
   PSTRESS=    0.0 pullay stress

  Mass of Ions in am
   POMASS = 106.42
  Ionic Valenz
   ZVAL   =  10.00
  Atomic Wigner-Seitz radii
   RWIGS  =  -1.00
  virtual crystal weights 
   VCA    =   1.00
   NELECT =      40.0000    total number of electrons
   NUPDOWN=      -1.0000    fix difference up-down

 DOS related values:
   EMIN   =  10.00;   EMAX   =-10.00  energy-range for DOS
   EFERMI =   0.00
   ISMEAR =     0;   SIGMA  =   0.20  broadening in eV -4-tet -1-fermi 0-gaus

 Electronic relaxation 2 (details)
   IALGO  =     68    algorithm
   LDIAG  =      T    sub-space diagonalisation (order eigenvalues)
   LSUBROT=      F    optimize rotation matrix (better conditioning)
   TURBO    =      0    0=normal 1=particle mesh
   IRESTART =      0    0=no restart 2=restart with 2 vectors
   NREBOOT  =      0    no. of reboots
   NMIN     =      0    reboot dimension
   EREF     =   0.00    reference energy to select bands
   IMIX   =      4    mixing-type and parameters
     AMIX     =   0.40;   BMIX     =  1.00
     AMIX_MAG =   1.60;   BMIX_MAG =  1.00
     AMIN     =   0.10
     WC   =   100.;   INIMIX=   1;  MIXPRE=   1;  MAXMIX= -45

 Intra band minimization:
   WEIMIN = 0.0000     energy-eigenvalue tresh-hold
   EBREAK =  0.63E-10  absolut break condition
   DEPER  =   0.30     relativ break condition  

   TIME   =   0.40     timestep for ELM

  volume/ion in A,a.u.               =      16.56       111.77
  Fermi-wavevector in a.u.,A,eV,Ry     =   1.383674  2.614764 26.049081  1.914553
  Thomas-Fermi vector in A             =   2.508250
 
 Write flags
   LWAVE        =      T    write WAVECAR
   LDOWNSAMPLE  =      F    k-point downsampling of WAVECAR
   LCHARG       =      T    write CHGCAR
   LVTOT        =      F    write LOCPOT, total local potential
   LVHAR        =      F    write LOCPOT, Hartree potential only
   LELF         =      F    write electronic localiz. function (ELF)
   LORBIT       =      0    0 simple, 1 ext, 2 COOP (PROOUT), +10 PAW based schemes


 Dipole corrections
   LMONO  =      F    monopole corrections only (constant potential shift)
   LDIPOL =      F    correct potential (dipole corrections)
   IDIPOL =      0    1-x, 2-y, 3-z, 4-all directions 
   EPSILON=  1.0000000 bulk dielectric constant

 Exchange correlation treatment:
   GGA     =    PE    GGA type
   LEXCH   =     8    internal setting for exchange type
   VOSKOWN=      0    Vosko Wilk Nusair interpolation
   LHFCALC =     F    Hartree Fock is set to
   LHFONE  =     F    Hartree Fock one center treatment
   AEXX    =    0.0000 exact exchange contribution

 Linear response parameters
   LEPSILON=     F    determine dielectric tensor
   LRPA    =     F    only Hartree local field effects (RPA)
   LNABLA  =     F    use nabla operator in PAW spheres
   LVEL    =     F    velocity operator in full k-point grid
   LINTERFAST=   F  fast interpolation
   KINTER  =     0    interpolate to denser k-point grid
   CSHIFT  =0.1000    complex shift for real part using Kramers Kronig
   OMEGAMAX=  -1.0    maximum frequency
   DEG_THRESHOLD= 0.2000000E-02 threshold for treating states as degnerate
   RTIME   =   -0.100 relaxation time in fs
  (WPLASMAI=    0.000 imaginary part of plasma frequency in eV, 0.658/RTIME)
   DFIELD  = 0.0000000 0.0000000 0.0000000 field for delta impulse in time
 
 Orbital magnetization related:
   ORBITALMAG=     F  switch on orbital magnetization
   LCHIMAG   =     F  perturbation theory with respect to B field
   DQ        =  0.001000  dq finite difference perturbation B field
   LLRAUG    =     F  two centre corrections for induced B field



--------------------------------------------------------------------------------------------------------


 Static calculation
 charge density and potential will be updated during run
 spin polarized calculation
 RMM-DIIS sequential band-by-band and
  variant of blocked Davidson during initial phase
 perform sub-space diagonalisation
    before iterative eigenvector-optimisation
 modified Broyden-mixing scheme, WC =      100.0
 initial mixing is a Kerker type mixing with AMIX =  0.4000 and BMIX =      1.0000
 Hartree-type preconditioning will be used
 using additional bands           20
 reciprocal scheme for non local part
 use partial core corrections
 calculate Harris-corrections to forces 
   (improved forces if not selfconsistent)
 use gradient corrections 
 use of overlap-Matrix (Vanderbilt PP)
 Gauss-broadening in eV      SIGMA  =   0.20


--------------------------------------------------------------------------------------------------------


  energy-cutoff  :      500.00
  volume of cell :       66.25
      direct lattice vectors                 reciprocal lattice vectors
     4.046328000  0.000000000  0.000000000     0.247137652  0.000000000  0.000000000
    -0.000000000  4.046328000  0.000000000     0.000000000  0.247137652  0.000000000
    -0.000000000 -0.000000000  4.046328000     0.000000000  0.000000000  0.247137652

  length of vectors
     4.046328000  4.046328000  4.046328000     0.247137652  0.247137652  0.247137652


 
 old parameters found on file WAVECAR:
  energy-cutoff  :      500.00
  volume of cell :       58.90
      direct lattice vectors                 reciprocal lattice vectors
     3.890700000  0.000000000  0.000000000     0.257023158  0.000000000  0.000000000
    -0.000000000  3.890700000  0.000000000     0.000000000  0.257023158  0.000000000
    -0.000000000 -0.000000000  3.890700000     0.000000000  0.000000000  0.257023158

  length of vectors

 
 k-points in units of 2pi/SCALE and weight: KPOINTS created by Atomic Simulation Env
   0.00000000  0.00000000  0.00000000       0.003
   0.03530538  0.00000000  0.00000000       0.006
   0.07061076  0.00000000  0.00000000       0.006
   0.10591614  0.00000000  0.00000000       0.006
   0.00000000  0.03530538  0.00000000       0.006
   0.03530538  0.03530538  0.00000000       0.006
   0.07061076  0.03530538  0.00000000       0.006
   0.10591614  0.03530538  0.00000000       0.006
  -0.10591614  0.03530538 -0.00000000       0.006
  -0.07061076  0.03530538 -0.00000000       0.006
  -0.03530538  0.03530538 -0.00000000       0.006
   0.00000000  0.07061076  0.00000000       0.006
   0.03530538  0.07061076  0.00000000       0.006
   0.07061076  0.07061076  0.00000000       0.006
   0.10591614  0.07061076  0.00000000       0.006
  -0.10591614  0.07061076 -0.00000000       0.006
  -0.07061076  0.07061076 -0.00000000       0.006
  -0.03530538  0.07061076  0.00000000       0.006
   0.00000000  0.10591614  0.00000000       0.006
   0.03530538  0.10591614  0.00000000       0.006
   0.07061076  0.10591614  0.00000000       0.006
   0.10591614  0.10591614  0.00000000       0.006
  -0.10591614  0.10591614 -0.00000000       0.006
  -0.07061076  0.10591614  0.00000000       0.006
  -0.03530538  0.10591614  0.00000000       0.006
   0.00000000  0.00000000  0.03530538       0.006
   0.03530538  0.00000000  0.03530538       0.006
   0.07061076  0.00000000  0.03530538       0.006
   0.10591614  0.00000000  0.03530538       0.006
  -0.10591614 -0.00000000  0.03530538       0.006
  -0.07061076 -0.00000000  0.03530538       0.006
  -0.03530538 -0.00000000  0.03530538       0.006
   0.00000000  0.03530538  0.03530538       0.006
   0.03530538  0.03530538  0.03530538       0.006
   0.07061076  0.03530538  0.03530538       0.006
   0.10591614  0.03530538  0.03530538       0.006
  -0.10591614  0.03530538  0.03530538       0.006
  -0.07061076  0.03530538  0.03530538       0.006
  -0.03530538  0.03530538  0.03530538       0.006
   0.00000000  0.07061076  0.03530538       0.006
   0.03530538  0.07061076  0.03530538       0.006
   0.07061076  0.07061076  0.03530538       0.006
   0.10591614  0.07061076  0.03530538       0.006
  -0.10591614  0.07061076  0.03530538       0.006
  -0.07061076  0.07061076  0.03530538       0.006
  -0.03530538  0.07061076  0.03530538       0.006
   0.00000000  0.10591614  0.03530538       0.006
   0.03530538  0.10591614  0.03530538       0.006
   0.07061076  0.10591614  0.03530538       0.006
   0.10591614  0.10591614  0.03530538       0.006
  -0.10591614  0.10591614  0.03530538       0.006
  -0.07061076  0.10591614  0.03530538       0.006
  -0.03530538  0.10591614  0.03530538       0.006
   0.00000000 -0.10591614  0.03530538       0.006
   0.03530538 -0.10591614  0.03530538       0.006
   0.07061076 -0.10591614  0.03530538       0.006
   0.10591614 -0.10591614  0.03530538       0.006
  -0.10591614 -0.10591614  0.03530538       0.006
  -0.07061076 -0.10591614  0.03530538       0.006
  -0.03530538 -0.10591614  0.03530538       0.006
   0.00000000 -0.07061076  0.03530538       0.006
   0.03530538 -0.07061076  0.03530538       0.006
   0.07061076 -0.07061076  0.03530538       0.006
   0.10591614 -0.07061076  0.03530538       0.006
  -0.10591614 -0.07061076  0.03530538       0.006
  -0.07061076 -0.07061076  0.03530538       0.006
  -0.03530538 -0.07061076  0.03530538       0.006
   0.00000000 -0.03530538  0.03530538       0.006
   0.03530538 -0.03530538  0.03530538       0.006
   0.07061076 -0.03530538  0.03530538       0.006
   0.10591614 -0.03530538  0.03530538       0.006
  -0.10591614 -0.03530538  0.03530538       0.006
  -0.07061076 -0.03530538  0.03530538       0.006
  -0.03530538 -0.03530538  0.03530538       0.006
   0.00000000  0.00000000  0.07061076       0.006
   0.03530538  0.00000000  0.07061076       0.006
   0.07061076  0.00000000  0.07061076       0.006
   0.10591614  0.00000000  0.07061076       0.006
  -0.10591614 -0.00000000  0.07061076       0.006
  -0.07061076 -0.00000000  0.07061076       0.006
  -0.03530538 -0.00000000  0.07061076       0.006
   0.00000000  0.03530538  0.07061076       0.006
   0.03530538  0.03530538  0.07061076       0.006
   0.07061076  0.03530538  0.07061076       0.006
   0.10591614  0.03530538  0.07061076       0.006
  -0.10591614  0.03530538  0.07061076       0.006
  -0.07061076  0.03530538  0.07061076       0.006
  -0.03530538  0.03530538  0.07061076       0.006
   0.00000000  0.07061076  0.07061076       0.006
   0.03530538  0.07061076  0.07061076       0.006
   0.07061076  0.07061076  0.07061076       0.006
   0.10591614  0.07061076  0.07061076       0.006
  -0.10591614  0.07061076  0.07061076       0.006
  -0.07061076  0.07061076  0.07061076       0.006
  -0.03530538  0.07061076  0.07061076       0.006
   0.00000000  0.10591614  0.07061076       0.006
   0.03530538  0.10591614  0.07061076       0.006
   0.07061076  0.10591614  0.07061076       0.006
   0.10591614  0.10591614  0.07061076       0.006
  -0.10591614  0.10591614  0.07061076       0.006
  -0.07061076  0.10591614  0.07061076       0.006
  -0.03530538  0.10591614  0.07061076       0.006
   0.00000000 -0.10591614  0.07061076       0.006
   0.03530538 -0.10591614  0.07061076       0.006
   0.07061076 -0.10591614  0.07061076       0.006
   0.10591614 -0.10591614  0.07061076       0.006
  -0.10591614 -0.10591614  0.07061076       0.006
  -0.07061076 -0.10591614  0.07061076       0.006
  -0.03530538 -0.10591614  0.07061076       0.006
   0.00000000 -0.07061076  0.07061076       0.006
   0.03530538 -0.07061076  0.07061076       0.006
   0.07061076 -0.07061076  0.07061076       0.006
   0.10591614 -0.07061076  0.07061076       0.006
  -0.10591614 -0.07061076  0.07061076       0.006
  -0.07061076 -0.07061076  0.07061076       0.006
  -0.03530538 -0.07061076  0.07061076       0.006
   0.00000000 -0.03530538  0.07061076       0.006
   0.03530538 -0.03530538  0.07061076       0.006
   0.07061076 -0.03530538  0.07061076       0.006
   0.10591614 -0.03530538  0.07061076       0.006
  -0.10591614 -0.03530538  0.07061076       0.006
  -0.07061076 -0.03530538  0.07061076       0.006
  -0.03530538 -0.03530538  0.07061076       0.006
   0.00000000  0.00000000  0.10591614       0.006
   0.03530538  0.00000000  0.10591614       0.006
   0.07061076  0.00000000  0.10591614       0.006
   0.10591614  0.00000000  0.10591614       0.006
  -0.10591614 -0.00000000  0.10591614       0.006
  -0.07061076 -0.00000000  0.10591614       0.006
  -0.03530538 -0.00000000  0.10591614       0.006
   0.00000000  0.03530538  0.10591614       0.006
   0.03530538  0.03530538  0.10591614       0.006
   0.07061076  0.03530538  0.10591614       0.006
   0.10591614  0.03530538  0.10591614       0.006
  -0.10591614  0.03530538  0.10591614       0.006
  -0.07061076  0.03530538  0.10591614       0.006
  -0.03530538  0.03530538  0.10591614       0.006
   0.00000000  0.07061076  0.10591614       0.006
   0.03530538  0.07061076  0.10591614       0.006
   0.07061076  0.07061076  0.10591614       0.006
   0.10591614  0.07061076  0.10591614       0.006
  -0.10591614  0.07061076  0.10591614       0.006
  -0.07061076  0.07061076  0.10591614       0.006
  -0.03530538  0.07061076  0.10591614       0.006
   0.00000000  0.10591614  0.10591614       0.006
   0.03530538  0.10591614  0.10591614       0.006
   0.07061076  0.10591614  0.10591614       0.006
   0.10591614  0.10591614  0.10591614       0.006
  -0.10591614  0.10591614  0.10591614       0.006
  -0.07061076  0.10591614  0.10591614       0.006
  -0.03530538  0.10591614  0.10591614       0.006
   0.00000000 -0.10591614  0.10591614       0.006
   0.03530538 -0.10591614  0.10591614       0.006
   0.07061076 -0.10591614  0.10591614       0.006
   0.10591614 -0.10591614  0.10591614       0.006
  -0.10591614 -0.10591614  0.10591614       0.006
  -0.07061076 -0.10591614  0.10591614       0.006
  -0.03530538 -0.10591614  0.10591614       0.006
   0.00000000 -0.07061076  0.10591614       0.006
   0.03530538 -0.07061076  0.10591614       0.006
   0.07061076 -0.07061076  0.10591614       0.006
   0.10591614 -0.07061076  0.10591614       0.006
  -0.10591614 -0.07061076  0.10591614       0.006
  -0.07061076 -0.07061076  0.10591614       0.006
  -0.03530538 -0.07061076  0.10591614       0.006
   0.00000000 -0.03530538  0.10591614       0.006
   0.03530538 -0.03530538  0.10591614       0.006
   0.07061076 -0.03530538  0.10591614       0.006
   0.10591614 -0.03530538  0.10591614       0.006
  -0.10591614 -0.03530538  0.10591614       0.006
  -0.07061076 -0.03530538  0.10591614       0.006
  -0.03530538 -0.03530538  0.10591614       0.006
 
 k-points in reciprocal lattice and weights: KPOINTS created by Atomic Simulation Env
   0.00000000  0.00000000  0.00000000       0.003
   0.14285714  0.00000000 -0.00000000       0.006
   0.28571429  0.00000000 -0.00000000       0.006
   0.42857143 -0.00000000 -0.00000000       0.006
   0.00000000  0.14285714 -0.00000000       0.006
   0.14285714  0.14285714  0.00000000       0.006
   0.28571429  0.14285714 -0.00000000       0.006
   0.42857143  0.14285714 -0.00000000       0.006
  -0.42857143  0.14285714  0.00000000       0.006
  -0.28571429  0.14285714  0.00000000       0.006
  -0.14285714  0.14285714  0.00000000       0.006
   0.00000000  0.28571429 -0.00000000       0.006
   0.14285714  0.28571429 -0.00000000       0.006
   0.28571429  0.28571429  0.00000000       0.006
   0.42857143  0.28571429 -0.00000000       0.006
  -0.42857143  0.28571429  0.00000000       0.006
  -0.28571429  0.28571429 -0.00000000       0.006
  -0.14285714  0.28571429  0.00000000       0.006
   0.00000000  0.42857143 -0.00000000       0.006
   0.14285714  0.42857143 -0.00000000       0.006
   0.28571429  0.42857143  0.00000000       0.006
   0.42857143  0.42857143 -0.00000000       0.006
  -0.42857143  0.42857143  0.00000000       0.006
  -0.28571429  0.42857143 -0.00000000       0.006
  -0.14285714  0.42857143 -0.00000000       0.006
   0.00000000  0.00000000  0.14285714       0.006
   0.14285714  0.00000000  0.14285714       0.006
   0.28571429  0.00000000  0.14285714       0.006
   0.42857143 -0.00000000  0.14285714       0.006
  -0.42857143  0.00000000  0.14285714       0.006
  -0.28571429 -0.00000000  0.14285714       0.006
  -0.14285714  0.00000000  0.14285714       0.006
   0.00000000  0.14285714  0.14285714       0.006
   0.14285714  0.14285714  0.14285714       0.006
   0.28571429  0.14285714  0.14285714       0.006
   0.42857143  0.14285714  0.14285714       0.006
  -0.42857143  0.14285714  0.14285714       0.006
  -0.28571429  0.14285714  0.14285714       0.006
  -0.14285714  0.14285714  0.14285714       0.006
   0.00000000  0.28571429  0.14285714       0.006
   0.14285714  0.28571429  0.14285714       0.006
   0.28571429  0.28571429  0.14285714       0.006
   0.42857143  0.28571429  0.14285714       0.006
  -0.42857143  0.28571429  0.14285714       0.006
  -0.28571429  0.28571429  0.14285714       0.006
  -0.14285714  0.28571429  0.14285714       0.006
   0.00000000  0.42857143  0.14285714       0.006
   0.14285714  0.42857143  0.14285714       0.006
   0.28571429  0.42857143  0.14285714       0.006
   0.42857143  0.42857143  0.14285714       0.006
  -0.42857143  0.42857143  0.14285714       0.006
  -0.28571429  0.42857143  0.14285714       0.006
  -0.14285714  0.42857143  0.14285714       0.006
   0.00000000 -0.42857143  0.14285714       0.006
   0.14285714 -0.42857143  0.14285714       0.006
   0.28571429 -0.42857143  0.14285714       0.006
   0.42857143 -0.42857143  0.14285714       0.006
  -0.42857143 -0.42857143  0.14285714       0.006
  -0.28571429 -0.42857143  0.14285714       0.006
  -0.14285714 -0.42857143  0.14285714       0.006
   0.00000000 -0.28571429  0.14285714       0.006
   0.14285714 -0.28571429  0.14285714       0.006
   0.28571429 -0.28571429  0.14285714       0.006
   0.42857143 -0.28571429  0.14285714       0.006
  -0.42857143 -0.28571429  0.14285714       0.006
  -0.28571429 -0.28571429  0.14285714       0.006
  -0.14285714 -0.28571429  0.14285714       0.006
   0.00000000 -0.14285714  0.14285714       0.006
   0.14285714 -0.14285714  0.14285714       0.006
   0.28571429 -0.14285714  0.14285714       0.006
   0.42857143 -0.14285714  0.14285714       0.006
  -0.42857143 -0.14285714  0.14285714       0.006
  -0.28571429 -0.14285714  0.14285714       0.006
  -0.14285714 -0.14285714  0.14285714       0.006
   0.00000000  0.00000000  0.28571429       0.006
   0.14285714  0.00000000  0.28571429       0.006
   0.28571429  0.00000000  0.28571429       0.006
   0.42857143 -0.00000000  0.28571429       0.006
  -0.42857143  0.00000000  0.28571429       0.006
  -0.28571429 -0.00000000  0.28571429       0.006
  -0.14285714  0.00000000  0.28571429       0.006
   0.00000000  0.14285714  0.28571429       0.006
   0.14285714  0.14285714  0.28571429       0.006
   0.28571429  0.14285714  0.28571429       0.006
   0.42857143  0.14285714  0.28571429       0.006
  -0.42857143  0.14285714  0.28571429       0.006
  -0.28571429  0.14285714  0.28571429       0.006
  -0.14285714  0.14285714  0.28571429       0.006
   0.00000000  0.28571429  0.28571429       0.006
   0.14285714  0.28571429  0.28571429       0.006
   0.28571429  0.28571429  0.28571429       0.006
   0.42857143  0.28571429  0.28571429       0.006
  -0.42857143  0.28571429  0.28571429       0.006
  -0.28571429  0.28571429  0.28571429       0.006
  -0.14285714  0.28571429  0.28571429       0.006
   0.00000000  0.42857143  0.28571429       0.006
   0.14285714  0.42857143  0.28571429       0.006
   0.28571429  0.42857143  0.28571429       0.006
   0.42857143  0.42857143  0.28571429       0.006
  -0.42857143  0.42857143  0.28571429       0.006
  -0.28571429  0.42857143  0.28571429       0.006
  -0.14285714  0.42857143  0.28571429       0.006
   0.00000000 -0.42857143  0.28571429       0.006
   0.14285714 -0.42857143  0.28571429       0.006
   0.28571429 -0.42857143  0.28571429       0.006
   0.42857143 -0.42857143  0.28571429       0.006
  -0.42857143 -0.42857143  0.28571429       0.006
  -0.28571429 -0.42857143  0.28571429       0.006
  -0.14285714 -0.42857143  0.28571429       0.006
   0.00000000 -0.28571429  0.28571429       0.006
   0.14285714 -0.28571429  0.28571429       0.006
   0.28571429 -0.28571429  0.28571429       0.006
   0.42857143 -0.28571429  0.28571429       0.006
  -0.42857143 -0.28571429  0.28571429       0.006
  -0.28571429 -0.28571429  0.28571429       0.006
  -0.14285714 -0.28571429  0.28571429       0.006
   0.00000000 -0.14285714  0.28571429       0.006
   0.14285714 -0.14285714  0.28571429       0.006
   0.28571429 -0.14285714  0.28571429       0.006
   0.42857143 -0.14285714  0.28571429       0.006
  -0.42857143 -0.14285714  0.28571429       0.006
  -0.28571429 -0.14285714  0.28571429       0.006
  -0.14285714 -0.14285714  0.28571429       0.006
   0.00000000  0.00000000  0.42857143       0.006
   0.14285714  0.00000000  0.42857143       0.006
   0.28571429  0.00000000  0.42857143       0.006
   0.42857143 -0.00000000  0.42857143       0.006
  -0.42857143  0.00000000  0.42857143       0.006
  -0.28571429 -0.00000000  0.42857143       0.006
  -0.14285714  0.00000000  0.42857143       0.006
   0.00000000  0.14285714  0.42857143       0.006
   0.14285714  0.14285714  0.42857143       0.006
   0.28571429  0.14285714  0.42857143       0.006
   0.42857143  0.14285714  0.42857143       0.006
  -0.42857143  0.14285714  0.42857143       0.006
  -0.28571429  0.14285714  0.42857143       0.006
  -0.14285714  0.14285714  0.42857143       0.006
   0.00000000  0.28571429  0.42857143       0.006
   0.14285714  0.28571429  0.42857143       0.006
   0.28571429  0.28571429  0.42857143       0.006
   0.42857143  0.28571429  0.42857143       0.006
  -0.42857143  0.28571429  0.42857143       0.006
  -0.28571429  0.28571429  0.42857143       0.006
  -0.14285714  0.28571429  0.42857143       0.006
   0.00000000  0.42857143  0.42857143       0.006
   0.14285714  0.42857143  0.42857143       0.006
   0.28571429  0.42857143  0.42857143       0.006
   0.42857143  0.42857143  0.42857143       0.006
  -0.42857143  0.42857143  0.42857143       0.006
  -0.28571429  0.42857143  0.42857143       0.006
  -0.14285714  0.42857143  0.42857143       0.006
   0.00000000 -0.42857143  0.42857143       0.006
   0.14285714 -0.42857143  0.42857143       0.006
   0.28571429 -0.42857143  0.42857143       0.006
   0.42857143 -0.42857143  0.42857143       0.006
  -0.42857143 -0.42857143  0.42857143       0.006
  -0.28571429 -0.42857143  0.42857143       0.006
  -0.14285714 -0.42857143  0.42857143       0.006
   0.00000000 -0.28571429  0.42857143       0.006
   0.14285714 -0.28571429  0.42857143       0.006
   0.28571429 -0.28571429  0.42857143       0.006
   0.42857143 -0.28571429  0.42857143       0.006
  -0.42857143 -0.28571429  0.42857143       0.006
  -0.28571429 -0.28571429  0.42857143       0.006
  -0.14285714 -0.28571429  0.42857143       0.006
   0.00000000 -0.14285714  0.42857143       0.006
   0.14285714 -0.14285714  0.42857143       0.006
   0.28571429 -0.14285714  0.42857143       0.006
   0.42857143 -0.14285714  0.42857143       0.006
  -0.42857143 -0.14285714  0.42857143       0.006
  -0.28571429 -0.14285714  0.42857143       0.006
  -0.14285714 -0.14285714  0.42857143       0.006
 
 position of ions in fractional coordinates (direct lattice) 
   0.00000000  0.00000000  0.00000000
   0.00000000  0.50000000  0.50000000
   0.50000000  0.00000000  0.50000000
   0.50000000  0.50000000  0.00000000
 
 position of ions in cartesian coordinates  (Angst):
   0.00000000  0.00000000  0.00000000
   0.00000000  2.02316400  2.02316400
   2.02316400  0.00000000  2.02316400
   2.02316400  2.02316400  0.00000000
 


--------------------------------------------------------------------------------------------------------


 k-point  1 :   0.0000 0.0000 0.0000  plane waves:    1743
 k-point  2 :   0.1429 0.0000-0.0000  plane waves:    1699
 k-point  3 :   0.2857 0.0000-0.0000  plane waves:    1695
 k-point  4 :   0.4286-0.0000-0.0000  plane waves:    1678
 k-point  5 :   0.0000 0.1429-0.0000  plane waves:    1699
 k-point  6 :   0.1429 0.1429 0.0000  plane waves:    1689
 k-point  7 :   0.2857 0.1429-0.0000  plane waves:    1702
 k-point  8 :   0.4286 0.1429-0.0000  plane waves:    1678
 k-point  9 :  -0.4286 0.1429 0.0000  plane waves:    1678
 k-point 10 :  -0.2857 0.1429 0.0000  plane waves:    1702
 k-point 11 :  -0.1429 0.1429 0.0000  plane waves:    1689
 k-point 12 :   0.0000 0.2857-0.0000  plane waves:    1695
 k-point 13 :   0.1429 0.2857-0.0000  plane waves:    1702
 k-point 14 :   0.2857 0.2857 0.0000  plane waves:    1678
 k-point 15 :   0.4286 0.2857-0.0000  plane waves:    1676
 k-point 16 :  -0.4286 0.2857 0.0000  plane waves:    1676
 k-point 17 :  -0.2857 0.2857-0.0000  plane waves:    1678
 k-point 18 :  -0.1429 0.2857 0.0000  plane waves:    1702
 k-point 19 :   0.0000 0.4286-0.0000  plane waves:    1678
 k-point 20 :   0.1429 0.4286-0.0000  plane waves:    1678
 k-point 21 :   0.2857 0.4286 0.0000  plane waves:    1676
 k-point 22 :   0.4286 0.4286-0.0000  plane waves:    1672
 k-point 23 :  -0.4286 0.4286 0.0000  plane waves:    1672
 k-point 24 :  -0.2857 0.4286-0.0000  plane waves:    1676
 k-point 25 :  -0.1429 0.4286-0.0000  plane waves:    1678
 k-point 26 :   0.0000 0.0000 0.1429  plane waves:    1699
 k-point 27 :   0.1429 0.0000 0.1429  plane waves:    1689
 k-point 28 :   0.2857 0.0000 0.1429  plane waves:    1702
 k-point 29 :   0.4286-0.0000 0.1429  plane waves:    1678
 k-point 30 :  -0.4286 0.0000 0.1429  plane waves:    1678
 k-point 31 :  -0.2857-0.0000 0.1429  plane waves:    1702
 k-point 32 :  -0.1429 0.0000 0.1429  plane waves:    1689
 k-point 33 :   0.0000 0.1429 0.1429  plane waves:    1689
 k-point 34 :   0.1429 0.1429 0.1429  plane waves:    1686
 k-point 35 :   0.2857 0.1429 0.1429  plane waves:    1687
 k-point 36 :   0.4286 0.1429 0.1429  plane waves:    1689
 k-point 37 :  -0.4286 0.1429 0.1429  plane waves:    1689
 k-point 38 :  -0.2857 0.1429 0.1429  plane waves:    1687
 k-point 39 :  -0.1429 0.1429 0.1429  plane waves:    1686
 k-point 40 :   0.0000 0.2857 0.1429  plane waves:    1702
 k-point 41 :   0.1429 0.2857 0.1429  plane waves:    1687
 k-point 42 :   0.2857 0.2857 0.1429  plane waves:    1669
 k-point 43 :   0.4286 0.2857 0.1429  plane waves:    1675
 k-point 44 :  -0.4286 0.2857 0.1429  plane waves:    1675
 k-point 45 :  -0.2857 0.2857 0.1429  plane waves:    1669
 k-point 46 :  -0.1429 0.2857 0.1429  plane waves:    1687
 k-point 47 :   0.0000 0.4286 0.1429  plane waves:    1678
 k-point 48 :   0.1429 0.4286 0.1429  plane waves:    1689
 k-point 49 :   0.2857 0.4286 0.1429  plane waves:    1675
 k-point 50 :   0.4286 0.4286 0.1429  plane waves:    1683
 k-point 51 :  -0.4286 0.4286 0.1429  plane waves:    1683
 k-point 52 :  -0.2857 0.4286 0.1429  plane waves:    1675
 k-point 53 :  -0.1429 0.4286 0.1429  plane waves:    1689
 k-point 54 :   0.0000-0.4286 0.1429  plane waves:    1678
 k-point 55 :   0.1429-0.4286 0.1429  plane waves:    1689
 k-point 56 :   0.2857-0.4286 0.1429  plane waves:    1675
 k-point 57 :   0.4286-0.4286 0.1429  plane waves:    1683
 k-point 58 :  -0.4286-0.4286 0.1429  plane waves:    1683
 k-point 59 :  -0.2857-0.4286 0.1429  plane waves:    1675
 k-point 60 :  -0.1429-0.4286 0.1429  plane waves:    1689
 k-point 61 :   0.0000-0.2857 0.1429  plane waves:    1702
 k-point 62 :   0.1429-0.2857 0.1429  plane waves:    1687
 k-point 63 :   0.2857-0.2857 0.1429  plane waves:    1669
 k-point 64 :   0.4286-0.2857 0.1429  plane waves:    1675
 k-point 65 :  -0.4286-0.2857 0.1429  plane waves:    1675
 k-point 66 :  -0.2857-0.2857 0.1429  plane waves:    1669
 k-point 67 :  -0.1429-0.2857 0.1429  plane waves:    1687
 k-point 68 :   0.0000-0.1429 0.1429  plane waves:    1689
 k-point 69 :   0.1429-0.1429 0.1429  plane waves:    1686
 k-point 70 :   0.2857-0.1429 0.1429  plane waves:    1687
 k-point 71 :   0.4286-0.1429 0.1429  plane waves:    1689
 k-point 72 :  -0.4286-0.1429 0.1429  plane waves:    1689
 k-point 73 :  -0.2857-0.1429 0.1429  plane waves:    1687
 k-point 74 :  -0.1429-0.1429 0.1429  plane waves:    1686
 k-point 75 :   0.0000 0.0000 0.2857  plane waves:    1695
 k-point 76 :   0.1429 0.0000 0.2857  plane waves:    1702
 k-point 77 :   0.2857 0.0000 0.2857  plane waves:    1678
 k-point 78 :   0.4286-0.0000 0.2857  plane waves:    1676
 k-point 79 :  -0.4286 0.0000 0.2857  plane waves:    1676
 k-point 80 :  -0.2857-0.0000 0.2857  plane waves:    1678
 k-point 81 :  -0.1429 0.0000 0.2857  plane waves:    1702
 k-point 82 :   0.0000 0.1429 0.2857  plane waves:    1702
 k-point 83 :   0.1429 0.1429 0.2857  plane waves:    1687
 k-point 84 :   0.2857 0.1429 0.2857  plane waves:    1669
 k-point 85 :   0.4286 0.1429 0.2857  plane waves:    1675
 k-point 86 :  -0.4286 0.1429 0.2857  plane waves:    1675
 k-point 87 :  -0.2857 0.1429 0.2857  plane waves:    1669
 k-point 88 :  -0.1429 0.1429 0.2857  plane waves:    1687
 k-point 89 :   0.0000 0.2857 0.2857  plane waves:    1678
 k-point 90 :   0.1429 0.2857 0.2857  plane waves:    1669
 k-point 91 :   0.2857 0.2857 0.2857  plane waves:    1688
 k-point 92 :   0.4286 0.2857 0.2857  plane waves:    1682
 k-point 93 :  -0.4286 0.2857 0.2857  plane waves:    1682
 k-point 94 :  -0.2857 0.2857 0.2857  plane waves:    1688
 k-point 95 :  -0.1429 0.2857 0.2857  plane waves:    1669
 k-point 96 :   0.0000 0.4286 0.2857  plane waves:    1676
 k-point 97 :   0.1429 0.4286 0.2857  plane waves:    1675
 k-point 98 :   0.2857 0.4286 0.2857  plane waves:    1682
 k-point 99 :   0.4286 0.4286 0.2857  plane waves:    1683
 k-point ** :  -0.4286 0.4286 0.2857  plane waves:    1683
 k-point ** :  -0.2857 0.4286 0.2857  plane waves:    1682
 k-point ** :  -0.1429 0.4286 0.2857  plane waves:    1675
 k-point ** :   0.0000-0.4286 0.2857  plane waves:    1676
 k-point ** :   0.1429-0.4286 0.2857  plane waves:    1675
 k-point ** :   0.2857-0.4286 0.2857  plane waves:    1682
 k-point ** :   0.4286-0.4286 0.2857  plane waves:    1683
 k-point ** :  -0.4286-0.4286 0.2857  plane waves:    1683
 k-point ** :  -0.2857-0.4286 0.2857  plane waves:    1682
 k-point ** :  -0.1429-0.4286 0.2857  plane waves:    1675
 k-point ** :   0.0000-0.2857 0.2857  plane waves:    1678
 k-point ** :   0.1429-0.2857 0.2857  plane waves:    1669
 k-point ** :   0.2857-0.2857 0.2857  plane waves:    1688
 k-point ** :   0.4286-0.2857 0.2857  plane waves:    1682
 k-point ** :  -0.4286-0.2857 0.2857  plane waves:    1682
 k-point ** :  -0.2857-0.2857 0.2857  plane waves:    1688
 k-point ** :  -0.1429-0.2857 0.2857  plane waves:    1669
 k-point ** :   0.0000-0.1429 0.2857  plane waves:    1702
 k-point ** :   0.1429-0.1429 0.2857  plane waves:    1687
 k-point ** :   0.2857-0.1429 0.2857  plane waves:    1669
 k-point ** :   0.4286-0.1429 0.2857  plane waves:    1675
 k-point ** :  -0.4286-0.1429 0.2857  plane waves:    1675
 k-point ** :  -0.2857-0.1429 0.2857  plane waves:    1669
 k-point ** :  -0.1429-0.1429 0.2857  plane waves:    1687
 k-point ** :   0.0000 0.0000 0.4286  plane waves:    1678
 k-point ** :   0.1429 0.0000 0.4286  plane waves:    1678
 k-point ** :   0.2857 0.0000 0.4286  plane waves:    1676
 k-point ** :   0.4286-0.0000 0.4286  plane waves:    1672
 k-point ** :  -0.4286 0.0000 0.4286  plane waves:    1672
 k-point ** :  -0.2857-0.0000 0.4286  plane waves:    1676
 k-point ** :  -0.1429 0.0000 0.4286  plane waves:    1678
 k-point ** :   0.0000 0.1429 0.4286  plane waves:    1678
 k-point ** :   0.1429 0.1429 0.4286  plane waves:    1689
 k-point ** :   0.2857 0.1429 0.4286  plane waves:    1675
 k-point ** :   0.4286 0.1429 0.4286  plane waves:    1683
 k-point ** :  -0.4286 0.1429 0.4286  plane waves:    1683
 k-point ** :  -0.2857 0.1429 0.4286  plane waves:    1675
 k-point ** :  -0.1429 0.1429 0.4286  plane waves:    1689
 k-point ** :   0.0000 0.2857 0.4286  plane waves:    1676
 k-point ** :   0.1429 0.2857 0.4286  plane waves:    1675
 k-point ** :   0.2857 0.2857 0.4286  plane waves:    1682
 k-point ** :   0.4286 0.2857 0.4286  plane waves:    1683
 k-point ** :  -0.4286 0.2857 0.4286  plane waves:    1683
 k-point ** :  -0.2857 0.2857 0.4286  plane waves:    1682
 k-point ** :  -0.1429 0.2857 0.4286  plane waves:    1675
 k-point ** :   0.0000 0.4286 0.4286  plane waves:    1672
 k-point ** :   0.1429 0.4286 0.4286  plane waves:    1683
 k-point ** :   0.2857 0.4286 0.4286  plane waves:    1683
 k-point ** :   0.4286 0.4286 0.4286  plane waves:    1679
 k-point ** :  -0.4286 0.4286 0.4286  plane waves:    1679
 k-point ** :  -0.2857 0.4286 0.4286  plane waves:    1683
 k-point ** :  -0.1429 0.4286 0.4286  plane waves:    1683
 k-point ** :   0.0000-0.4286 0.4286  plane waves:    1672
 k-point ** :   0.1429-0.4286 0.4286  plane waves:    1683
 k-point ** :   0.2857-0.4286 0.4286  plane waves:    1683
 k-point ** :   0.4286-0.4286 0.4286  plane waves:    1679
 k-point ** :  -0.4286-0.4286 0.4286  plane waves:    1679
 k-point ** :  -0.2857-0.4286 0.4286  plane waves:    1683
 k-point ** :  -0.1429-0.4286 0.4286  plane waves:    1683
 k-point ** :   0.0000-0.2857 0.4286  plane waves:    1676
 k-point ** :   0.1429-0.2857 0.4286  plane waves:    1675
 k-point ** :   0.2857-0.2857 0.4286  plane waves:    1682
 k-point ** :   0.4286-0.2857 0.4286  plane waves:    1683
 k-point ** :  -0.4286-0.2857 0.4286  plane waves:    1683
 k-point ** :  -0.2857-0.2857 0.4286  plane waves:    1682
 k-point ** :  -0.1429-0.2857 0.4286  plane waves:    1675
 k-point ** :   0.0000-0.1429 0.4286  plane waves:    1678
 k-point ** :   0.1429-0.1429 0.4286  plane waves:    1689
 k-point ** :   0.2857-0.1429 0.4286  plane waves:    1675
 k-point ** :   0.4286-0.1429 0.4286  plane waves:    1683
 k-point ** :  -0.4286-0.1429 0.4286  plane waves:    1683
 k-point ** :  -0.2857-0.1429 0.4286  plane waves:    1675
 k-point ** :  -0.1429-0.1429 0.4286  plane waves:    1689

 maximum and minimum number of plane-waves per node :      1743     1669

 maximum number of plane-waves:      1743
 maximum index in each direction: 
   IXMAX=    7   IYMAX=    7   IZMAX=    7
   IXMIN=   -7   IYMIN=   -7   IZMIN=   -7


 serial   3D FFT for wavefunctions
 parallel 3D FFT for charge:
    minimum data exchange during FFTs selected (reduces bandwidth)


 total amount of memory used by VASP MPI-rank0    87612. kBytes
=======================================================================

   base      :      30000. kBytes
   nonl-proj :      43704. kBytes
   fftplans  :        937. kBytes
   grid      :       2720. kBytes
   one-center:        124. kBytes
   wavefun   :      10127. kBytes
 
     INWAV:  cpu time    0.7826: real time    0.7861
 Broyden mixing: mesh for mixing (old mesh)
   NGX = 15   NGY = 15   NGZ = 15
  (NGX  = 60   NGY  = 60   NGZ  = 60)
  gives a total of   3375 points

 charge density for first step will be calculated from the start-wavefunctions


--------------------------------------------------------------------------------------------------------


 Maximum index for augmentation-charges         4434 (set IRDMAX)


--------------------------------------------------------------------------------------------------------


 initial charge from wavefunction
 First call to EWALD:  gamma=   0.438
 Maximum number of real-space cells 3x 3x 3
 Maximum number of reciprocal cells 3x 3x 3

    FEWALD:  cpu time    0.0017: real time    0.0017


--------------------------------------- Iteration      1(   1)  ---------------------------------------


    POTLOK:  cpu time    0.0118: real time    0.0159
    SETDIJ:  cpu time    0.0194: real time    0.0199
     EDDAV:  cpu time    6.2505: real time    6.2713
       DOS:  cpu time    0.0029: real time    0.0029
    CHARGE:  cpu time    0.1786: real time    0.1793
    MIXING:  cpu time    0.0012: real time    0.0012
    --------------------------------------------
      LOOP:  cpu time    6.4644: real time    6.4904

 eigenvalue-minimisations  : 33440
 total energy-change (2. order) :-0.4007482E+02  (-0.3075814E+02)
 number of electron      40.0000002 magnetization      -0.0000000
 augmentation part       20.7657462 magnetization      -0.0000000

 Broyden mixing:
  rms(total) = 0.50712E+01    rms(broyden)= 0.50711E+01
  rms(prec ) = 0.77047E+01
  weight for this iteration     100.00

 Free energy of the ion-electron system (eV)
  ---------------------------------------------------
  alpha Z        PSCENC =       328.81131332
  Ewald energy   TEWEN  =     -3263.25689648
  -Hartree energ DENC   =      -394.20585572
  -exchange      EXHF   =         0.00000000
  -V(xc)+E(xc)   XCENC  =      -121.84476461
  PAW double counting   =      3544.13079987    -3300.68355761
  entropy T*S    EENTRO =        -0.12346615
  eigenvalues    EBANDS =       -71.89559968
  atomic energy  EATOM  =      3238.99320840
  Solvation  Ediel_sol  =         0.00000000
  ---------------------------------------------------
  free energy    TOTEN  =       -40.07481867 eV

  energy without entropy =      -39.95135251  energy(sigma->0) =      -40.01308559


--------------------------------------------------------------------------------------------------------




--------------------------------------- Iteration      1(   2)  ---------------------------------------


    POTLOK:  cpu time    0.0115: real time    0.0133
    SETDIJ:  cpu time    0.0183: real time    0.0219
    EDDIAG:  cpu time    1.4566: real time    1.4994
  RMM-DIIS:  cpu time    1.2607: real time    1.2653
    ORTHCH:  cpu time    0.1046: real time    0.1049
       DOS:  cpu time    0.0025: real time    0.0025
    CHARGE:  cpu time    0.1931: real time    0.1937
    MIXING:  cpu time    0.0008: real time    0.0008
    --------------------------------------------
      LOOP:  cpu time    3.0482: real time    3.1019

 eigenvalue-minimisations  : 27760
 total energy-change (2. order) : 0.1946178E+02  (-0.4672722E+01)
 number of electron      40.0000002 magnetization      -0.0000000
 augmentation part       16.8313642 magnetization       0.0000000

 Broyden mixing:
  rms(total) = 0.29756E+01    rms(broyden)= 0.29756E+01
  rms(prec ) = 0.29854E+01
  weight for this iteration     100.00

 eigenvalues of (default mixing * dielectric matrix)
  average eigenvalue GAMMA=   0.6469
  0.6469

 Free energy of the ion-electron system (eV)
  ---------------------------------------------------
  alpha Z        PSCENC =       328.81131332
  Ewald energy   TEWEN  =     -3263.25689648
  -Hartree energ DENC   =      -516.76354806
  -exchange      EXHF   =         0.00000000
  -V(xc)+E(xc)   XCENC  =      -118.74708977
  PAW double counting   =      3966.37851449    -3719.25219700
  entropy T*S    EENTRO =        -0.21285166
  eigenvalues    EBANDS =        63.43650551
  atomic energy  EATOM  =      3238.99320840
  Solvation  Ediel_sol  =         0.00000000
  ---------------------------------------------------
  free energy    TOTEN  =       -20.61304126 eV

  energy without entropy =      -20.40018959  energy(sigma->0) =      -20.50661542


--------------------------------------------------------------------------------------------------------




--------------------------------------- Iteration      1(   3)  ---------------------------------------


    POTLOK:  cpu time    0.0088: real time    0.0127
    SETDIJ:  cpu time    0.0170: real time    0.0174
    EDDIAG:  cpu time    1.4357: real time    1.4542
  RMM-DIIS:  cpu time    1.8506: real time    1.8561
    ORTHCH:  cpu time    0.1048: real time    0.1052
       DOS:  cpu time    0.0026: real time    0.0026
    CHARGE:  cpu time    0.1923: real time    0.1927
    MIXING:  cpu time    0.0004: real time    0.0004
    --------------------------------------------
      LOOP:  cpu time    3.6123: real time    3.6414

 eigenvalue-minimisations  : 33128
 total energy-change (2. order) :-0.3682442E-01  (-0.1522089E-01)
 number of electron      40.0000002 magnetization      -0.0000000
 augmentation part       16.9288086 magnetization       0.0000000

 Broyden mixing:
  rms(total) = 0.20621E+01    rms(broyden)= 0.20621E+01
  rms(prec ) = 0.20632E+01
  weight for this iteration     100.00

 eigenvalues of (default mixing * dielectric matrix)
  average eigenvalue GAMMA=   1.8566
  0.9825  2.7307

 Free energy of the ion-electron system (eV)
  ---------------------------------------------------
  alpha Z        PSCENC =       328.81131332
  Ewald energy   TEWEN  =     -3263.25689648
  -Hartree energ DENC   =      -512.60075010
  -exchange      EXHF   =         0.00000000
  -V(xc)+E(xc)   XCENC  =      -118.87361511
  PAW double counting   =      3805.81148201    -3560.06684363
  entropy T*S    EENTRO =        -0.21441579
  eigenvalues    EBANDS =        60.74665171
  atomic energy  EATOM  =      3238.99320840
  Solvation  Ediel_sol  =         0.00000000
  ---------------------------------------------------
  free energy    TOTEN  =       -20.64986568 eV

  energy without entropy =      -20.43544989  energy(sigma->0) =      -20.54265778


--------------------------------------------------------------------------------------------------------




--------------------------------------- Iteration      1(   4)  ---------------------------------------


    POTLOK:  cpu time    0.0089: real time    0.0128
    SETDIJ:  cpu time    0.0172: real time    0.0173
    EDDIAG:  cpu time    1.4273: real time    1.4611
  RMM-DIIS:  cpu time    1.9787: real time    1.9904
    ORTHCH:  cpu time    0.1047: real time    0.1049
       DOS:  cpu time    0.0026: real time    0.0026
    CHARGE:  cpu time    0.1917: real time    0.1924
    MIXING:  cpu time    0.0004: real time    0.0004
    --------------------------------------------
      LOOP:  cpu time    3.7315: real time    3.7819

 eigenvalue-minimisations  : 36412
 total energy-change (2. order) :-0.1878223E-01  (-0.1023758E-02)
 number of electron      40.0000002 magnetization       0.0000000
 augmentation part       16.9024421 magnetization       0.0000000

 Broyden mixing:
  rms(total) = 0.29642E+00    rms(broyden)= 0.29642E+00
  rms(prec ) = 0.30151E+00
  weight for this iteration     100.00

 eigenvalues of (default mixing * dielectric matrix)
  average eigenvalue GAMMA=   1.4505
  2.4899  1.0042  0.8576

 Free energy of the ion-electron system (eV)
  ---------------------------------------------------
  alpha Z        PSCENC =       328.81131332
  Ewald energy   TEWEN  =     -3263.25689648
  -Hartree energ DENC   =      -510.36027829
  -exchange      EXHF   =         0.00000000
  -V(xc)+E(xc)   XCENC  =      -118.95586906
  PAW double counting   =      3453.21249318    -3209.93538621
  entropy T*S    EENTRO =        -0.21496088
  eigenvalues    EBANDS =        61.03772812
  atomic energy  EATOM  =      3238.99320840
  Solvation  Ediel_sol  =         0.00000000
  ---------------------------------------------------
  free energy    TOTEN  =       -20.66864791 eV

  energy without entropy =      -20.45368703  energy(sigma->0) =      -20.56116747


--------------------------------------------------------------------------------------------------------




--------------------------------------- Iteration      1(   5)  ---------------------------------------


    POTLOK:  cpu time    0.0094: real time    0.0125
    SETDIJ:  cpu time    0.0173: real time    0.0174
    EDDIAG:  cpu time    1.4272: real time    1.4575
  RMM-DIIS:  cpu time    2.0268: real time    2.0369
    ORTHCH:  cpu time    0.1047: real time    0.1049
       DOS:  cpu time    0.0027: real time    0.0027
    CHARGE:  cpu time    0.1920: real time    0.1925
    MIXING:  cpu time    0.0004: real time    0.0004
    --------------------------------------------
      LOOP:  cpu time    3.7805: real time    3.8249

 eigenvalue-minimisations  : 35488
 total energy-change (2. order) : 0.1399532E-02  (-0.2645749E-03)
 number of electron      40.0000002 magnetization       0.0000000
 augmentation part       16.9323840 magnetization       0.0000000

 Broyden mixing:
  rms(total) = 0.13977E-01    rms(broyden)= 0.13977E-01
  rms(prec ) = 0.31753E-01
  weight for this iteration     100.00

 eigenvalues of (default mixing * dielectric matrix)
  average eigenvalue GAMMA=   1.1506
  2.4963  1.0000  0.8372  0.2689

 Free energy of the ion-electron system (eV)
  ---------------------------------------------------
  alpha Z        PSCENC =       328.81131332
  Ewald energy   TEWEN  =     -3263.25689648
  -Hartree energ DENC   =      -509.58372885
  -exchange      EXHF   =         0.00000000
  -V(xc)+E(xc)   XCENC  =      -118.97616934
  PAW double counting   =      3491.73404773    -3248.26147710
  entropy T*S    EENTRO =        -0.21466570
  eigenvalues    EBANDS =        60.08711965
  atomic energy  EATOM  =      3238.99320840
  Solvation  Ediel_sol  =         0.00000000
  ---------------------------------------------------
  free energy    TOTEN  =       -20.66724838 eV

  energy without entropy =      -20.45258268  energy(sigma->0) =      -20.55991553


--------------------------------------------------------------------------------------------------------




--------------------------------------- Iteration      1(   6)  ---------------------------------------


    POTLOK:  cpu time    0.0088: real time    0.0128
    SETDIJ:  cpu time    0.0171: real time    0.0173
    EDDIAG:  cpu time    1.4248: real time    1.4598
  RMM-DIIS:  cpu time    2.3913: real time    2.4007
    ORTHCH:  cpu time    0.1047: real time    0.1050
       DOS:  cpu time    0.0027: real time    0.0027
    CHARGE:  cpu time    0.1915: real time    0.1926
    MIXING:  cpu time    0.0005: real time    0.0005
    --------------------------------------------
      LOOP:  cpu time    4.1415: real time    4.1914

 eigenvalue-minimisations  : 37066
 total energy-change (2. order) : 0.1040165E-03  (-0.1473201E-04)
 number of electron      40.0000002 magnetization       0.0000000
 augmentation part       16.9331551 magnetization       0.0000000

 Broyden mixing:
  rms(total) = 0.96436E-02    rms(broyden)= 0.96436E-02
  rms(prec ) = 0.13430E-01
  weight for this iteration     100.00

 eigenvalues of (default mixing * dielectric matrix)
  average eigenvalue GAMMA=   1.2344
  2.5732  1.1999  1.1999  0.9452  0.2538

 Free energy of the ion-electron system (eV)
  ---------------------------------------------------
  alpha Z        PSCENC =       328.81131332
  Ewald energy   TEWEN  =     -3263.25689648
  -Hartree energ DENC   =      -509.53540995
  -exchange      EXHF   =         0.00000000
  -V(xc)+E(xc)   XCENC  =      -118.97767866
  PAW double counting   =      3490.95828024    -3247.50145186
  entropy T*S    EENTRO =        -0.21465642
  eigenvalues    EBANDS =        60.05614705
  atomic energy  EATOM  =      3238.99320840
  Solvation  Ediel_sol  =         0.00000000
  ---------------------------------------------------
  free energy    TOTEN  =       -20.66714436 eV

  energy without entropy =      -20.45248794  energy(sigma->0) =      -20.55981615


--------------------------------------------------------------------------------------------------------




--------------------------------------- Iteration      1(   7)  ---------------------------------------


    POTLOK:  cpu time    0.0088: real time    0.0128
    SETDIJ:  cpu time    0.0170: real time    0.0175
    EDDIAG:  cpu time    1.4332: real time    1.4534
  RMM-DIIS:  cpu time    2.0339: real time    2.0409
    ORTHCH:  cpu time    0.1048: real time    0.1051
       DOS:  cpu time    0.0026: real time    0.0026
    CHARGE:  cpu time    0.1903: real time    0.1908
    MIXING:  cpu time    0.0005: real time    0.0005
    --------------------------------------------
      LOOP:  cpu time    3.7909: real time    3.8235

 eigenvalue-minimisations  : 36924
 total energy-change (2. order) : 0.2424661E-04  (-0.2963425E-05)
 number of electron      40.0000002 magnetization       0.0000000
 augmentation part       16.9356688 magnetization       0.0000000

 Broyden mixing:
  rms(total) = 0.16348E-01    rms(broyden)= 0.16348E-01
  rms(prec ) = 0.16716E-01
  weight for this iteration     100.00

 eigenvalues of (default mixing * dielectric matrix)
  average eigenvalue GAMMA=   1.3513
  2.5867  2.3064  1.0717  0.9454  0.9454  0.2523

 Free energy of the ion-electron system (eV)
  ---------------------------------------------------
  alpha Z        PSCENC =       328.81131332
  Ewald energy   TEWEN  =     -3263.25689648
  -Hartree energ DENC   =      -509.35899453
  -exchange      EXHF   =         0.00000000
  -V(xc)+E(xc)   XCENC  =      -118.98331626
  PAW double counting   =      3487.00321755    -3243.61781551
  entropy T*S    EENTRO =        -0.21463370
  eigenvalues    EBANDS =        59.95679709
  atomic energy  EATOM  =      3238.99320840
  Solvation  Ediel_sol  =         0.00000000
  ---------------------------------------------------
  free energy    TOTEN  =       -20.66712011 eV

  energy without entropy =      -20.45248642  energy(sigma->0) =      -20.55980326


--------------------------------------------------------------------------------------------------------




--------------------------------------- Iteration      1(   8)  ---------------------------------------


    POTLOK:  cpu time    0.0087: real time    0.0130
    SETDIJ:  cpu time    0.0169: real time    0.0173
    EDDIAG:  cpu time    1.4274: real time    1.4455
  RMM-DIIS:  cpu time    2.8509: real time    2.8600
    ORTHCH:  cpu time    0.1048: real time    0.1051
       DOS:  cpu time    0.0027: real time    0.0027
    CHARGE:  cpu time    0.1904: real time    0.1909
    MIXING:  cpu time    0.0005: real time    0.0005
    --------------------------------------------
      LOOP:  cpu time    4.6021: real time    4.6350

 eigenvalue-minimisations  : 35214
 total energy-change (2. order) : 0.1389482E-05  (-0.7717098E-06)
 number of electron      40.0000002 magnetization       0.0000000
 augmentation part       16.9369120 magnetization       0.0000000

 Broyden mixing:
  rms(total) = 0.25737E-02    rms(broyden)= 0.25737E-02
  rms(prec ) = 0.27661E-02
  weight for this iteration     100.00

 eigenvalues of (default mixing * dielectric matrix)
  average eigenvalue GAMMA=   1.2388
  2.5810  2.3802  1.0561  0.9484  0.9484  0.5057  0.2519

 Free energy of the ion-electron system (eV)
  ---------------------------------------------------
  alpha Z        PSCENC =       328.81131332
  Ewald energy   TEWEN  =     -3263.25689648
  -Hartree energ DENC   =      -509.25278206
  -exchange      EXHF   =         0.00000000
  -V(xc)+E(xc)   XCENC  =      -118.98685168
  PAW double counting   =      3486.31913627    -3242.97971456
  entropy T*S    EENTRO =        -0.21461249
  eigenvalues    EBANDS =        59.90008057
  atomic energy  EATOM  =      3238.99320840
  Solvation  Ediel_sol  =         0.00000000
  ---------------------------------------------------
  free energy    TOTEN  =       -20.66711872 eV

  energy without entropy =      -20.45250623  energy(sigma->0) =      -20.55981248


--------------------------------------------------------------------------------------------------------




--------------------------------------- Iteration      1(   9)  ---------------------------------------


    POTLOK:  cpu time    0.0089: real time    0.0123
    SETDIJ:  cpu time    0.0170: real time    0.0174
    EDDIAG:  cpu time    1.4354: real time    1.4490
  RMM-DIIS:  cpu time    2.1736: real time    2.1856
    ORTHCH:  cpu time    0.1045: real time    0.1048
       DOS:  cpu time    0.0027: real time    0.0027
    CHARGE:  cpu time    0.1904: real time    0.1910
    MIXING:  cpu time    0.0005: real time    0.0005
    --------------------------------------------
      LOOP:  cpu time    3.9331: real time    3.9634

 eigenvalue-minimisations  : 39949
 total energy-change (2. order) :-0.2669026E-06  (-0.7977355E-07)
 number of electron      40.0000002 magnetization       0.0000000
 augmentation part       16.9370032 magnetization       0.0000000

 Broyden mixing:
  rms(total) = 0.12769E-02    rms(broyden)= 0.12769E-02
  rms(prec ) = 0.13695E-02
  weight for this iteration     100.00

 eigenvalues of (default mixing * dielectric matrix)
  average eigenvalue GAMMA=   1.2027
  2.5934  2.4663  1.0628  1.0628  0.9158  1.0084  0.2514  0.2606

 Free energy of the ion-electron system (eV)
  ---------------------------------------------------
  alpha Z        PSCENC =       328.81131332
  Ewald energy   TEWEN  =     -3263.25689648
  -Hartree energ DENC   =      -509.24905259
  -exchange      EXHF   =         0.00000000
  -V(xc)+E(xc)   XCENC  =      -118.98698732
  PAW double counting   =      3486.39990445    -3243.06147735
  entropy T*S    EENTRO =        -0.21461082
  eigenvalues    EBANDS =        59.89747941
  atomic energy  EATOM  =      3238.99320840
  Solvation  Ediel_sol  =         0.00000000
  ---------------------------------------------------
  free energy    TOTEN  =       -20.66711899 eV

  energy without entropy =      -20.45250817  energy(sigma->0) =      -20.55981358


--------------------------------------------------------------------------------------------------------




--------------------------------------- Iteration      1(  10)  ---------------------------------------


    POTLOK:  cpu time    0.0090: real time    0.0126
    SETDIJ:  cpu time    0.0173: real time    0.0174
    EDDIAG:  cpu time    1.4247: real time    1.4378
  RMM-DIIS:  cpu time    2.5996: real time    2.6087
    ORTHCH:  cpu time    0.1046: real time    0.1049
       DOS:  cpu time    0.0026: real time    0.0026
    CHARGE:  cpu time    0.1904: real time    0.1909
    MIXING:  cpu time    0.0005: real time    0.0005
    --------------------------------------------
      LOOP:  cpu time    4.3489: real time    4.3756

 eigenvalue-minimisations  : 34591
 total energy-change (2. order) :-0.8830148E-07  (-0.5105526E-08)
 number of electron      40.0000002 magnetization       0.0000000
 augmentation part       16.9369818 magnetization       0.0000000

 Broyden mixing:
  rms(total) = 0.20892E-03    rms(broyden)= 0.20892E-03
  rms(prec ) = 0.23466E-03
  weight for this iteration     100.00

 eigenvalues of (default mixing * dielectric matrix)
  average eigenvalue GAMMA=   1.3300
  2.8504  2.4589  2.1816  1.1118  1.0158  0.9220  0.9220  0.2515  0.2560

[...]
     40      26.0216      0.00000

 k-point   169 :       0.4286   -0.1429    0.4286
  band No.  band energies     occupation 
      1      -0.2561      1.00000
      2      -0.0227      1.00000
      3      -0.0227      1.00000
      4       0.0551      1.00000
      5       0.8530      1.00000
      6       0.9760      1.00000
      7       0.9760      1.00000
      8       1.1873      1.00000
      9       1.4002      1.00000
     10       1.4002      1.00000
     11       1.5290      1.00000
     12       1.6094      1.00000
     13       1.7443      1.00000
     14       1.9804      1.00000
     15       1.9899      1.00000
     16       1.9899      1.00000
     17       2.7263      1.00000
     18       3.0857      0.99999
     19       3.0857      0.99999
     20       3.1644      0.99987
     21       4.5214      0.00000
     22       5.7609      0.00000
     23       5.7609      0.00000
     24       7.0813      0.00000
     25      11.8537      0.00000
     26      13.1903      0.00000
     27      13.1903      0.00000
     28      14.6076      0.00000
     29      16.9761      0.00000
     30      18.1478      0.00000
     31      18.1478      0.00000
     32      19.3612      0.00000
     33      25.9184      0.00000
     34      25.9191      0.00000
     35      25.9956      0.00000
     36      26.0059      0.00000
     37      26.0199      0.00000
     38      26.0201      0.00000
     39      26.0203      0.00000
     40      26.0206      0.00000

 k-point   170 :      -0.4286   -0.1429    0.4286
  band No.  band energies     occupation 
      1      -0.2561      1.00000
      2      -0.0227      1.00000
      3      -0.0227      1.00000
      4       0.0551      1.00000
      5       0.8530      1.00000
      6       0.9760      1.00000
      7       0.9760      1.00000
      8       1.1873      1.00000
      9       1.4002      1.00000
     10       1.4002      1.00000
     11       1.5290      1.00000
     12       1.6094      1.00000
     13       1.7443      1.00000
     14       1.9804      1.00000
     15       1.9899      1.00000
     16       1.9899      1.00000
     17       2.7263      1.00000
     18       3.0857      0.99999
     19       3.0857      0.99999
     20       3.1644      0.99987
     21       4.5214      0.00000
     22       5.7609      0.00000
     23       5.7609      0.00000
     24       7.0813      0.00000
     25      11.8537      0.00000
     26      13.1903      0.00000
     27      13.1903      0.00000
     28      14.6076      0.00000
     29      16.9761      0.00000
     30      18.1478      0.00000
     31      18.1478      0.00000
     32      19.3612      0.00000
     33      25.9183      0.00000
     34      25.9186      0.00000
     35      25.9956      0.00000
     36      26.0060      0.00000
     37      26.0202      0.00000
     38      26.0202      0.00000
     39      26.0203      0.00000
     40      26.0206      0.00000

 k-point   171 :      -0.2857   -0.1429    0.4286
  band No.  band energies     occupation 
      1      -0.4839      1.00000
      2      -0.1391      1.00000
      3       0.1326      1.00000
      4       0.1878      1.00000
      5       0.6244      1.00000
      6       0.6473      1.00000
      7       0.8145      1.00000
      8       1.0342      1.00000
      9       1.2752      1.00000
     10       1.2785      1.00000
     11       1.4243      1.00000
     12       1.4504      1.00000
     13       1.7997      1.00000
     14       2.1218      1.00000
     15       2.2621      1.00000
     16       2.3246      1.00000
     17       2.7635      1.00000
     18       3.2805      0.99774
     19       3.4214      0.96734
     20       3.4262      0.96478
     21       3.6431      0.60838
     22       4.6785      0.00000
     23       7.5096      0.00000
     24       8.7419      0.00000
     25      10.7964      0.00000
     26      12.0183      0.00000
     27      14.7905      0.00000
     28      16.1566      0.00000
     29      16.2549      0.00000
     30      17.1819      0.00000
     31      18.6774      0.00000
     32      19.5333      0.00000
     33      19.5775      0.00000
     34      20.7424      0.00000
     35      20.9696      0.00000
     36      26.0121      0.00000
     37      26.0135      0.00000
     38      26.0205      0.00000
     39      26.0209      0.00000
     40      26.0216      0.00000

 k-point   172 :      -0.1429   -0.1429    0.4286
  band No.  band energies     occupation 
      1      -0.6803      1.00000
      2      -0.2308      1.00000
      3       0.1804      1.00000
      4       0.1804      1.00000
      5       0.3519      1.00000
      6       0.4972      1.00000
      7       0.4972      1.00000
      8       0.6799      1.00000
      9       1.2550      1.00000
     10       1.2550      1.00000
     11       1.5743      1.00000
     12       1.6615      1.00000
     13       1.9160      1.00000
     14       2.2979      1.00000
     15       2.5609      1.00000
     16       2.5609      1.00000
     17       2.7954      1.00000
     18       3.1159      0.99997
     19       3.4243      0.96579
     20       3.6194      0.67115
     21       3.6194      0.67114
     22       3.8025      0.19722
     23       9.6730      0.00000
     24       9.6730      0.00000
     25      11.1994      0.00000
     26      11.1994      0.00000
     27      15.6084      0.00000
     28      15.6084      0.00000
     29      16.6737      0.00000
     30      16.7231      0.00000
     31      16.7231      0.00000
     32      18.1445      0.00000
     33      20.3493      0.00000
     34      20.6003      0.00000
     35      26.0148      0.00000
     36      26.0199      0.00000
     37      26.0207      0.00000
     38      26.0208      0.00000
     39      26.0208      0.00000
     40      26.0208      0.00000


--------------------------------------------------------------------------------------------------------


 soft charge-density along one line, spin component           1
         0         1         2         3         4         5         6         7         8         9
 total charge-density along one line
 
 soft charge-density along one line, spin component           2
         0         1         2         3         4         5         6         7         8         9
 total charge-density along one line
 
 pseudopotential strength for first ion, spin component:           1
 -9.800   0.000   0.000   0.000  -0.000 -10.082   0.000   0.000
  0.000  -9.800   0.000  -0.000   0.000   0.000 -10.082   0.000
  0.000   0.000  -9.771   0.000   0.000   0.000   0.000 -10.053
  0.000  -0.000   0.000  -9.800   0.000   0.000  -0.000   0.000
 -0.000   0.000   0.000   0.000  -9.771  -0.000   0.000   0.000
-10.082   0.000   0.000   0.000  -0.000 -10.343   0.000   0.000
  0.000 -10.082   0.000  -0.000   0.000   0.000 -10.343   0.000
  0.000   0.000 -10.053   0.000   0.000   0.000   0.000 -10.315
  0.000  -0.000   0.000 -10.082   0.000   0.000  -0.000   0.000
 -0.000   0.000   0.000   0.000 -10.053  -0.000   0.000   0.000
  0.000  -0.000  -0.000  -0.000   0.000   0.000  -0.000  -0.000
  0.000  -0.000  -0.000  -0.000   0.000   0.000  -0.000  -0.000
 -0.000  -0.000   0.000   0.000   0.000  -0.000  -0.000   0.000
  0.000  -0.000  -0.000  -0.000  -0.000   0.000  -0.000  -0.000
 -0.000   0.000   0.000  -0.000  -0.000  -0.000   0.000   0.000
 -0.000  -0.000   0.000   0.000   0.000  -0.000  -0.000   0.000
  0.000  -0.000  -0.000  -0.000  -0.000   0.000  -0.000  -0.000
 -0.000   0.000   0.000  -0.000  -0.000  -0.000   0.000   0.000
 pseudopotential strength for first ion, spin component:           2
 -9.800   0.000   0.000   0.000  -0.000 -10.082   0.000   0.000
  0.000  -9.800   0.000  -0.000   0.000   0.000 -10.082   0.000
  0.000   0.000  -9.771   0.000   0.000   0.000   0.000 -10.053
  0.000  -0.000   0.000  -9.800   0.000   0.000  -0.000   0.000
 -0.000   0.000   0.000   0.000  -9.771  -0.000   0.000   0.000
-10.082   0.000   0.000   0.000  -0.000 -10.343   0.000   0.000
  0.000 -10.082   0.000  -0.000   0.000   0.000 -10.343   0.000
  0.000   0.000 -10.053   0.000   0.000   0.000   0.000 -10.315
  0.000  -0.000   0.000 -10.082   0.000   0.000  -0.000   0.000
 -0.000   0.000   0.000   0.000 -10.053  -0.000   0.000   0.000
  0.000  -0.000  -0.000  -0.000   0.000   0.000  -0.000  -0.000
  0.000  -0.000  -0.000  -0.000   0.000   0.000  -0.000  -0.000
 -0.000  -0.000   0.000   0.000   0.000  -0.000  -0.000   0.000
  0.000  -0.000  -0.000  -0.000   0.000   0.000  -0.000  -0.000
 -0.000   0.000   0.000  -0.000  -0.000  -0.000   0.000   0.000
 -0.000  -0.000   0.000   0.000   0.000  -0.000  -0.000   0.000
  0.000  -0.000  -0.000  -0.000   0.000   0.000  -0.000  -0.000
 -0.000   0.000   0.000  -0.000  -0.000  -0.000   0.000   0.000
 total augmentation occupancy for first ion, spin component:           1
  2.680   0.000  -0.000  -0.000  -0.000  -1.267  -0.000   0.000   0.000   0.000   0.000  -0.000  -0.000  -0.000  -0.000   0.000
  0.000   2.680  -0.000   0.000   0.000  -0.000  -1.267   0.000   0.000  -0.000   0.000  -0.000   0.000  -0.000   0.000   0.000
 -0.000  -0.000   3.168  -0.000  -0.000   0.000   0.000  -1.377   0.000   0.000   0.000  -0.000   0.000  -0.000   0.000  -0.000
 -0.000   0.000  -0.000   2.680  -0.000   0.000   0.000   0.000  -1.267   0.000   0.000  -0.000   0.000   0.000  -0.000  -0.000
 -0.000   0.000  -0.000  -0.000   3.168   0.000  -0.000   0.000   0.000  -1.377  -0.000   0.000   0.000   0.000   0.000  -0.000
 -1.267  -0.000   0.000   0.000   0.000   1.577   0.000   0.000  -0.000  -0.000  -0.000   0.000   0.000   0.000   0.000  -0.000
 -0.000  -1.267   0.000   0.000  -0.000   0.000   1.577  -0.000  -0.000   0.000  -0.000   0.000  -0.000   0.000  -0.000  -0.000
  0.000   0.000  -1.377   0.000   0.000   0.000  -0.000   1.433  -0.000   0.000  -0.000   0.000  -0.000  -0.000   0.000   0.000
  0.000   0.000   0.000  -1.267   0.000  -0.000  -0.000  -0.000   1.577   0.000   0.000  -0.000  -0.000  -0.000   0.000   0.000
  0.000  -0.000   0.000   0.000  -1.377  -0.000   0.000   0.000   0.000   1.433   0.000  -0.000  -0.000  -0.000  -0.000   0.000
  0.000   0.000   0.000   0.000  -0.000  -0.000  -0.000  -0.000   0.000   0.000   2.033  -0.340   0.000   0.000  -0.000  -0.000
 -0.000  -0.000  -0.000  -0.000   0.000   0.000   0.000   0.000  -0.000  -0.000  -0.340   0.059  -0.000  -0.000   0.000   0.000
 -0.000   0.000   0.000   0.000   0.000   0.000  -0.000  -0.000  -0.000  -0.000   0.000  -0.000   0.126  -0.000   0.000  -0.005
 -0.000  -0.000  -0.000   0.000   0.000   0.000   0.000  -0.000  -0.000  -0.000   0.000  -0.000  -0.000   0.126  -0.000  -0.000
 -0.000   0.000   0.000  -0.000   0.000   0.000  -0.000   0.000   0.000  -0.000  -0.000   0.000   0.000  -0.000   0.126  -0.000
  0.000   0.000  -0.000  -0.000  -0.000  -0.000  -0.000   0.000   0.000   0.000  -0.000   0.000  -0.005  -0.000  -0.000   0.000
  0.000   0.000   0.000   0.000  -0.000  -0.000  -0.000   0.000  -0.000   0.000  -0.000   0.000   0.000  -0.005   0.000  -0.000
  0.000  -0.000  -0.000   0.000  -0.000  -0.000   0.000  -0.000  -0.000   0.000   0.000  -0.000  -0.000   0.000  -0.005   0.000
 total augmentation occupancy for first ion, spin component:           2
 -0.000   0.000  -0.000   0.000  -0.000   0.000  -0.000  -0.000  -0.000  -0.000  -0.000   0.000   0.000   0.000  -0.000  -0.000
  0.000  -0.000  -0.000  -0.000   0.000  -0.000   0.000   0.000   0.000  -0.000   0.000  -0.000  -0.000   0.000  -0.000   0.000
 -0.000  -0.000  -0.000  -0.000  -0.000  -0.000   0.000   0.000   0.000   0.000  -0.000   0.000  -0.000  -0.000   0.000   0.000
  0.000  -0.000  -0.000   0.000  -0.000  -0.000   0.000   0.000  -0.000   0.000   0.000  -0.000  -0.000  -0.000   0.000   0.000
 -0.000   0.000  -0.000  -0.000  -0.000  -0.000  -0.000  -0.000   0.000   0.000  -0.000   0.000  -0.000  -0.000   0.000   0.000
  0.000  -0.000  -0.000  -0.000  -0.000   0.000   0.000   0.000   0.000   0.000   0.000  -0.000  -0.000  -0.000   0.000   0.000
 -0.000   0.000   0.000   0.000  -0.000   0.000  -0.000  -0.000  -0.000   0.000  -0.000   0.000   0.000  -0.000  -0.000  -0.000
 -0.000   0.000   0.000   0.000  -0.000   0.000  -0.000  -0.000  -0.000   0.000   0.000  -0.000   0.000   0.000  -0.000  -0.000
 -0.000   0.000   0.000  -0.000   0.000   0.000  -0.000  -0.000   0.000  -0.000  -0.000   0.000   0.000   0.000  -0.000  -0.000
 -0.000  -0.000   0.000   0.000   0.000   0.000   0.000   0.000  -0.000  -0.000   0.000  -0.000   0.000   0.000  -0.000  -0.000
 -0.000   0.000  -0.000   0.000  -0.000   0.000  -0.000   0.000  -0.000   0.000  -0.000   0.000   0.000   0.000   0.000  -0.000
  0.000  -0.000   0.000  -0.000   0.000  -0.000   0.000  -0.000   0.000  -0.000   0.000  -0.000  -0.000  -0.000  -0.000   0.000
  0.000  -0.000  -0.000  -0.000  -0.000  -0.000   0.000   0.000   0.000   0.000   0.000  -0.000  -0.000   0.000   0.000   0.000
  0.000   0.000  -0.000  -0.000  -0.000  -0.000  -0.000   0.000   0.000   0.000   0.000  -0.000   0.000  -0.000  -0.000  -0.000
 -0.000  -0.000   0.000   0.000   0.000   0.000  -0.000  -0.000  -0.000  -0.000   0.000  -0.000   0.000  -0.000  -0.000  -0.000
 -0.000   0.000   0.000   0.000   0.000   0.000  -0.000  -0.000  -0.000  -0.000  -0.000   0.000   0.000  -0.000  -0.000  -0.000
 -0.000  -0.000   0.000   0.000   0.000   0.000  -0.000  -0.000  -0.000  -0.000  -0.000   0.000  -0.000   0.000   0.000   0.000
  0.000   0.000  -0.000  -0.000  -0.000  -0.000   0.000   0.000   0.000   0.000  -0.000   0.000   0.000  -0.000   0.000   0.000


------------------------ aborting loop because EDIFF is reached ----------------------------------------


    CHARGE:  cpu time    0.1841: real time    0.1852
    FORLOC:  cpu time    0.0004: real time    0.0004
    FORNL :  cpu time    0.2213: real time    0.2224
    STRESS:  cpu time    1.1981: real time    1.2027
    FORCOR:  cpu time    0.0077: real time    0.0078
    FORHAR:  cpu time    0.0012: real time    0.0013
    MIXING:  cpu time    0.0006: real time    0.0007
    OFIELD:  cpu time    0.0001: real time    0.0002

 ---------------------------------------------------------------------------------------------

         DFTD3 V3.0 Rev 1        
 IVDW         = 11
 DF pbe       
 parameters
 VDW_S6       =    1.0000
 VDW_S8       =    0.7220
 VDW_SR       =    1.2170
 rs18     =    1.0000
 alpha6   =   14.0000
 alpha8   =   16.0000
 k1-k3    =   16.0000    1.3333   -4.0000
 VDW_RADIUS   =   50.2022 A
 VDW_CNRADIUS =   21.1671 A
 Edisp (eV)   -2.03716

 E6    (eV) :    -0.8980
 E8    (eV) :    -1.1392
 % E8        : 55.92
    FORVDW:  cpu time    0.0311: real time    0.0325

  FORCE on cell =-STRESS in cart. coord.  units (eV):
  Direction    XX          YY          ZZ          XY          YZ          ZX
  --------------------------------------------------------------------------------------
  Alpha Z   328.81131   328.81131   328.81131
  Ewald   -1087.75278 -1087.75278 -1087.75278     0.00000     0.00000     0.00000
  Hartree   169.75140   169.75140   169.75140     0.00000    -0.00000     0.00000
  E(xc)    -208.69927  -208.69927  -208.69927    -0.00000     0.00000    -0.00000
  Local     295.47831   295.47831   295.47831    -0.00000     0.00000    -0.00000
  n-local  -215.55410  -215.55410  -215.55410     0.00000    -0.00000     0.00000
  augment   172.18449   172.18449   172.18449     0.00000     0.00000     0.00000
  Kinetic   541.99616   541.99616   541.99616     0.00000    -0.00000    -0.00000
  Fock        0.00000     0.00000     0.00000     0.00000     0.00000     0.00000
  vdW        -2.48610    -2.48610    -2.48610    -0.00000    -0.00000    -0.00000
  -------------------------------------------------------------------------------------
  Total      -6.27056    -6.27056    -6.27056     0.00000     0.00000     0.00000
  in kB    -151.64700  -151.64704  -151.64702     0.00000     0.00001     0.00001
  external pressure =     -151.65 kB  Pullay stress =        0.00 kB


 VOLUME and BASIS-vectors are now :
 -----------------------------------------------------------------------------
  energy-cutoff  :      500.00
  volume of cell :       66.25
      direct lattice vectors                 reciprocal lattice vectors
     4.046328000  0.000000000  0.000000000     0.247137652  0.000000000  0.000000000
    -0.000000000  4.046328000  0.000000000     0.000000000  0.247137652  0.000000000
    -0.000000000 -0.000000000  4.046328000     0.000000000  0.000000000  0.247137652

  length of vectors
     4.046328000  4.046328000  4.046328000     0.247137652  0.247137652  0.247137652


 FORCES acting on ions
    electron-ion (+dipol)            ewald-force                    non-local-force                 convergence-correction
 -----------------------------------------------------------------------------------------------
   -.559E-06 -.163E-05 -.360E-05   0.274E-07 0.137E-07 0.769E-13   -.429E-06 -.451E-05 -.869E-05   0.466E-06 0.460E-05 0.880E-05
   -.359E-05 -.125E-05 0.901E-06   -.274E-07 -.137E-07 -.798E-13   -.684E-05 -.360E-05 0.245E-05   0.763E-05 0.367E-05 -.198E-05
   0.354E-05 -.887E-06 0.487E-05   -.295E-13 -.137E-07 -.757E-13   0.783E-05 -.256E-05 0.911E-05   -.831E-05 0.266E-05 -.103E-04
   0.347E-05 -.154E-05 -.445E-05   0.194E-13 0.137E-07 0.778E-13   0.816E-05 -.448E-05 -.998E-05   -.841E-05 0.449E-05 0.105E-04
 -----------------------------------------------------------------------------------------------
   0.286E-05 -.530E-05 -.228E-05   -.876E-15 0.355E-14 -.821E-15   0.872E-05 -.151E-04 -.711E-05   -.863E-05 0.154E-04 0.701E-05
 
 
 POSITION                                       TOTAL-FORCE (eV/Angst)
 -----------------------------------------------------------------------------------
      0.00000      0.00000      0.00000        -0.000001     -0.000000     -0.000003
      0.00000      2.02316      2.02316        -0.000004      0.000000      0.000002
      2.02316      0.00000      2.02316         0.000002      0.000000      0.000004
      2.02316      2.02316      0.00000         0.000002     -0.000000     -0.000003
 -----------------------------------------------------------------------------------
    total drift:                                0.000003     -0.000005     -0.000002


--------------------------------------------------------------------------------------------------------



  FREE ENERGIE OF THE ION-ELECTRON SYSTEM (eV)
  ---------------------------------------------------
  free  energy   TOTEN  =       -22.70427471 eV

  energy  without entropy=      -22.48966422  energy(sigma->0) =      -22.59696947
 


--------------------------------------------------------------------------------------------------------


    POTLOK:  cpu time    0.0270: real time    0.0270


--------------------------------------------------------------------------------------------------------


 writing wavefunctions
     LOOP+:  cpu time   56.5437: real time   57.0428
    4ORBIT:  cpu time    0.0000: real time    0.0000

 total amount of memory used by VASP MPI-rank0    87612. kBytes
=======================================================================

   base      :      30000. kBytes
   nonl-proj :      43704. kBytes
   fftplans  :        937. kBytes
   grid      :       2720. kBytes
   one-center:        124. kBytes
   wavefun   :      10127. kBytes
 
  
  
 General timing and accounting informations for this job:
 ========================================================
  
                  Total CPU time used (sec):       58.678
                            User time (sec):       56.114
                          System time (sec):        2.564
                         Elapsed time (sec):       59.223
  
                   Maximum memory used (kb):      132128.
                   Average memory used (kb):           0.
  
                          Minor page faults:        71030
                          Major page faults:            0
                 Voluntary context switches:         2382
