Job execution start: Fri 19 Apr 15:33:51 BST 2024
Shared library path: /apps/chemistry/orca/5.0.0/el7:/apps/libraries/openmpi/4.1.1/el7/AVX512/gnu-9.2/lib:/apps/compilers/gnu/9.2.0/lib64:/apps/compilers/gnu/9.2.0/lib:/opt/slurm/23.02.7/el7/lib
Slurm Job ID is: 56479612
Slurm Job name is: orca.hawk.skl.nebjob.sh
ccs[0017,0041]

                                        *****************
                                        * O   R   C   A *
                                        *****************

                                            #,                                       
                                            ###                                      
                                            ####                                     
                                            #####                                    
                                            ######                                   
                                           ########,                                 
                                     ,,################,,,,,                         
                               ,,#################################,,                 
                          ,,##########################################,,             
                       ,#########################################, ''#####,          
                    ,#############################################,,   '####,        
                  ,##################################################,,,,####,       
                ,###########''''           ''''###############################       
              ,#####''   ,,,,##########,,,,          '''####'''          '####       
            ,##' ,,,,###########################,,,                        '##       
           ' ,,###''''                  '''############,,,                           
         ,,##''                                '''############,,,,        ,,,,,,###''
      ,#''                                            '''#######################'''  
     '                                                          ''''####''''         
             ,#######,   #######,   ,#######,      ##                                
            ,#'     '#,  ##    ##  ,#'     '#,    #''#        ######   ,####,        
            ##       ##  ##   ,#'  ##            #'  '#       #        #'  '#        
            ##       ##  #######   ##           ,######,      #####,   #    #        
            '#,     ,#'  ##    ##  '#,     ,#' ,#      #,         ##   #,  ,#        
             '#######'   ##     ##  '#######'  #'      '#     #####' # '####'        



                  #######################################################
                  #                        -***-                        #
                  #          Department of theory and spectroscopy      #
                  #    Directorship and core code : Frank Neese         #
                  #        Max Planck Institute fuer Kohlenforschung    #
                  #                Kaiser Wilhelm Platz 1               #
                  #                 D-45470 Muelheim/Ruhr               #
                  #                      Germany                        #
                  #                                                     #
                  #                  All rights reserved                #
                  #                        -***-                        #
                  #######################################################


                         Program Version 5.0.0 -  RELEASE  -
                                (SVN: $Rev: 19529$)
                ($Date: 2021-06-28 11:36:33 +0200 (Mo, 28 Jun 2021) $)


 With contributions from (in alphabetic order):
   Daniel Aravena         : Magnetic Suceptibility
   Michael Atanasov       : Ab Initio Ligand Field Theory (pilot matlab implementation)
   Alexander A. Auer      : GIAO ZORA, VPT2 properties, NMR spectrum
   Ute Becker             : Parallelization
   Giovanni Bistoni       : ED, misc. LED, open-shell LED, HFLD
   Martin Brehm           : Molecular dynamics
   Dmytro Bykov           : SCF Hessian
   Vijay G. Chilkuri      : MRCI spin determinant printing, contributions to CSF-ICE
   Dipayan Datta          : RHF DLPNO-CCSD density
   Achintya Kumar Dutta   : EOM-CC, STEOM-CC
   Dmitry Ganyushin       : Spin-Orbit,Spin-Spin,Magnetic field MRCI
   Miquel Garcia          : C-PCM Hessian, Gaussian charge scheme
   Yang Guo               : DLPNO-NEVPT2, F12-NEVPT2, CIM, IAO-localization
   Andreas Hansen         : Spin unrestricted coupled pair/coupled cluster methods
   Benjamin Helmich-Paris : MC-RPA, TRAH-SCF, COSX integrals
   Lee Huntington         : MR-EOM, pCC
   Robert Izsak           : Overlap fitted RIJCOSX, COSX-SCS-MP3, EOM
   Marcus Kettner         : VPT2
   Christian Kollmar      : KDIIS, OOCD, Brueckner-CCSD(T), CCSD density, CASPT2, CASPT2-K
   Simone Kossmann        : Meta GGA functionals, TD-DFT gradient, OOMP2, MP2 Hessian
   Martin Krupicka        : Initial AUTO-CI
   Lucas Lang             : DCDCAS
   Marvin Lechner         : AUTO-CI (C++ implementation), FIC-MRCC
   Dagmar Lenk            : GEPOL surface, SMD
   Dimitrios Liakos       : Extrapolation schemes; Compound Job, initial MDCI parallelization
   Dimitrios Manganas     : Further ROCIS development; embedding schemes
   Dimitrios Pantazis     : SARC Basis sets
   Anastasios Papadopoulos: AUTO-CI, single reference methods and gradients
   Taras Petrenko         : DFT Hessian,TD-DFT gradient, ASA, ECA, R-Raman, ABS, FL, XAS/XES, NRVS
   Peter Pinski           : DLPNO-MP2, DLPNO-MP2 Gradient
   Christoph Reimann      : Effective Core Potentials
   Marius Retegan         : Local ZFS, SOC
   Christoph Riplinger    : Optimizer, TS searches, QM/MM, DLPNO-CCSD(T), (RO)-DLPNO pert. Triples
   Tobias Risthaus        : Range-separated hybrids, TD-DFT gradient, RPA, STAB
   Michael Roemelt        : Original ROCIS implementation
   Masaaki Saitow         : Open-shell DLPNO-CCSD energy and density
   Barbara Sandhoefer     : DKH picture change effects
   Avijit Sen             : IP-ROCIS
   Kantharuban Sivalingam : CASSCF convergence, NEVPT2, FIC-MRCI
   Bernardo de Souza      : ESD, SOC TD-DFT
   Georgi Stoychev        : AutoAux, RI-MP2 NMR
   Willem Van den Heuvel  : Paramagnetic NMR
   Boris Wezisla          : Elementary symmetry handling
   Frank Wennmohs         : Technical directorship


 We gratefully acknowledge several colleagues who have allowed us to
 interface, adapt or use parts of their codes:
   Stefan Grimme, W. Hujo, H. Kruse, P. Pracht,  : VdW corrections, initial TS optimization,
                  C. Bannwarth, S. Ehlert          DFT functionals, gCP, sTDA/sTD-DF
   Ed Valeev, F. Pavosevic, A. Kumar             : LibInt (2-el integral package), F12 methods
   Garnet Chan, S. Sharma, J. Yang, R. Olivares  : DMRG
   Ulf Ekstrom                                   : XCFun DFT Library
   Mihaly Kallay                                 : mrcc  (arbitrary order and MRCC methods)
   Jiri Pittner, Ondrej Demel                    : Mk-CCSD
   Frank Weinhold                                : gennbo (NPA and NBO analysis)
   Christopher J. Cramer and Donald G. Truhlar   : smd solvation model
   Lars Goerigk                                  : TD-DFT with DH, B97 family of functionals
   V. Asgeirsson, H. Jonsson                     : NEB implementation
   FAccTs GmbH                                   : IRC, NEB, NEB-TS, DLPNO-Multilevel, CI-OPT
                                                   MM, QMMM, 2- and 3-layer-ONIOM, Crystal-QMMM,
                                                   LR-CPCM, SF, NACMEs, symmetry and pop. for TD-DFT,
                                                   nearIR, NL-DFT gradient (VV10), updates on ESD,
                                                   ML-optimized integration grids
   S Lehtola, MJT Oliveira, MAL Marques          : LibXC Library
   Liviu Ungur et al                             : ANISO software


 Your calculation uses the libint2 library for the computation of 2-el integrals
 For citations please refer to: http://libint.valeyev.net

 Your ORCA version has been built with support for libXC version: 5.1.0
 For citations please refer to: https://tddft.org/programs/libxc/

 This ORCA versions uses:
   CBLAS   interface :  Fast vector & matrix operations
   LAPACKE interface :  Fast linear algebra routines
   SCALAPACK package :  Parallel linear algebra routines
   Shared memory     :  Shared parallel matrices
   BLAS/LAPACK       :  OpenBLAS 0.3.15  USE64BITINT DYNAMIC_ARCH NO_AFFINITY SkylakeX SINGLE_THREADED
        Core in use  :  SkylakeX
   Copyright (c) 2011-2014, The OpenBLAS Project




***************************************
The coordinates will be read from file: react.xyz
***************************************


Your calculation utilizes the DFT-NL dispersion correction.
Cite in your paper:
Vydrov, O. A.; Van Voorhis, T. J. Chem. Phys. 2010, 133, 244103
Hujo, W.; Grimme, S. J. Chem. Theory Comput. 2011, 7, 3866 
   

Your calculation utilizes a Nudged-Elastic-Band implementation
 by V.Asgeirsson, C. Riplinger & H. Jonsson
Please cite in your paper:
 V. Asgeirsson et al., in prep. (2019)
   

================================================================================

----- Orbital basis set information -----
Your calculation utilizes the basis: def2-TZVP
   F. Weigend and R. Ahlrichs, Phys. Chem. Chem. Phys. 7, 3297 (2005).

----- AuxJ basis set information -----
Your calculation utilizes the auxiliary basis: def2/J
   F. Weigend, Phys. Chem. Chem. Phys. 8, 1057 (2006).

================================================================================
                                        WARNINGS
                       Please study these warnings very carefully!
================================================================================


WARNING: Geometry Optimization
  ===> : Switching off AutoStart
         For restart on a previous wavefunction, please use MOREAD

WARNING: Analytic gradients for DFT-NL dispersion can only be done using the self-consistent method,
  ===>   Switching to SCNL

INFO   : the flag for use of the SHARK integral package has been found!

================================================================================
                                       INPUT FILE
================================================================================
NAME = /scratch/c.c21095646/orca.56479612/orca.inp
|  1> !wB97X-V def2-TZVP NEB-TS
|  2> %NEB NEB_END_XYZFILE "prod.xyz" END
|  3> %pal
|  4> nprocs 40
|  5> end
|  6> * xyzfile 0 1 react.xyz
|  7> 
|  8> 
|  9>                          ****END OF INPUT****
================================================================================


------------------------------------------------------------------------------- 
                         Nudged Elastic Band Calculation                       
------------------------------------------------------------------------------- 

Number of images (incl. end points)     ....  10
Number of intermediate images           ....  8
Number of optimized images              ....  8
Optimization of end points before NEB   ....  NO
Use existing gbw files for MO input     ....  NO
Number of atoms                         ....  12
Number of (active) degrees of freedom   ....  36
Constrained atoms                       ....  None

-----------------------------------------
  REACTANT (ANGSTROEM)
-----------------------------------------
O      6.165369     0.339705    -0.001027 
N      2.715570    -0.667093     0.000299 
C      3.806444     0.175063     0.000638 
C      3.328693     1.470472     0.000262 
C      1.573828     0.066306    -0.000132 
C      1.919158     1.402343    -0.000173 
C      5.167411    -0.342346     0.001225 
H      2.761605    -1.672198     0.000422 
H      3.950225     2.353885     0.000367 
H      0.603013    -0.407345    -0.000376 
H      1.226959     2.231494    -0.000481 
H      5.243317    -1.453986    -0.001024 

-----------------------------------------
  PRODUCT (ANGSTROEM)
-----------------------------------------
O      5.914725     1.176518     0.288135 
N      3.095667     1.341946     0.171888 
C      3.805110     0.180194     0.009899 
C      2.897488    -0.839945    -0.205234 
C      1.769987     1.084165     0.064674 
C      1.606905    -0.266694    -0.170988 
C      5.255339     0.178837     0.079643 
H      3.534410     2.232463     0.343393 
H      3.147660    -1.879290    -0.366976 
H      1.035013     1.870100     0.160774 
H      0.663222    -0.774811    -0.303185 
H      5.736062    -0.807185    -0.072022 



----------------------
NEB settings
----------------------
Method type                             ....  climbing image
Threshold for climbing image            ....  2.00e-02 Eh/Bohr 
Free endpoints                          ....  off 
Tangent type                            ....  improved 
Number of intermediate images           ....  8 
Number of images free to move           ....  8 
Spring type for image distribution      ....  distance between adjacent images 
Spring constant                         ....  energy weighted (0.0100 -to- 0.1000) Eh/Bohr^2 
Spring force perp. to the path          ....  none 
Generation of initial path              ....  image dependent pair potential 
Initial path via TS guess               ....  off 

Minimization of RMSD: Rotation          ....  always 
Minimization of RMSD: Translation type  ....  centroid 
Center fixed to origin                  ....  true 
Remove external force                   ....  true 

Reparametrization of the path           ....  off 
Convergence thresholds:
Convergence monitored for               ....  all images
Scaling factor                          ....  10.00

Convergence parameters for regular images:
               Max(|Fp|)                ....  2.00e-02 Eh/Bohr
               RMS(Fp)                  ....  1.00e-02 Eh/Bohr

Convergence parameters for climbing image:
               Max(|F|)                 ....  2.00e-03 Eh/Bohr
               RMS(F)                   ....  1.00e-03 Eh/Bohr
Optimization method:
Method                                  ....  L-BFGS
Max. iterations                         ....  500 
Step size                               ....  1.00 
Maximum allowed step size               ....  0.10 Bohr

LBFGS parameters: 
               Memory                   ....  20 
               Initial step size        ....  0.0010 
               Estimate curvature       ....  YES 
               Reset on maxmove         ....  YES 
               Reparam. on reset        ....  NO 
Generation of  the initial path:
Minimize RMSD between reactant and product configurations     .... done
       RMSD before minimization         ....  2.5407 Bohr
       RMSD after minimization          ....  0.8956 Bohr
Performing linear interpolation         ....  done
Interpolation using                     ....  IDPP (Image Dependent Pair Potential)
IDPP-Settings:
       Remove global transl. and rot.   ...   true
       Convergence tolerance            ....  0.0100 1/Ang.^3
       Max. numer of iterations         ....    7000
       Spring constant                  ....  1.0000 1/Ang.^4
       Time step                        ....  0.0100 fs
       Max. movement per iteration      ....  0.0500 Ang.
       Full print                       ....  false 
idpp initial path generation successfully converged in 159 iterations
Displacement along initial path:              7.8858 Bohr
Writing initial trajectory to file      ....  /scratch/c.c21095646/orca.56479612/orca_initial_path_trj.xyz



----------------------
NEB OPTIMIZATION      
----------------------

Following output files will be written:
Energy profile during opt. written to    ....  /scratch/c.c21095646/orca.56479612/orca.interp
Optimization log-file                    ....  /scratch/c.c21095646/orca.56479612/orca.NEB.log
Current trajectory will be written to    ....  /scratch/c.c21095646/orca.56479612/orca_MEP_trj.xyz
       and to allxyz file                ....  /scratch/c.c21095646/orca.56479612/orca_MEP.allxyz
       and individual images to xyz file ....  /scratch/c.c21095646/orca.56479612/orca_im{NIm}.xyz
Trajectory history will be written to    ....  /scratch/c.c21095646/orca.56479612/orca_MEP_ALL_trj.xyz
Converged CI will be written to          ....  /scratch/c.c21095646/orca.56479612/orca_NEB-CI_converged.xyz
Converged TS will be written to          ....  /scratch/c.c21095646/orca.56479612/orca_NEB-TS_converged.xyz

Single point energy and gradient calculation of reactant and
product configurations (have to be performed only once)
Properties of fixed NEB end points:
               Reactant:
                         E               ....   -323.523992 Eh
                         RMS(F)          ....      0.000131 Eh/Bohr
                         MAX(|F|)        ....      0.000590 Eh/Bohr
               Product:
                         E               ....   -323.530255 Eh
                         RMS(F)          ....      0.000080 Eh/Bohr
                         MAX(|F|)        ....      0.000299 Eh/Bohr



Starting iterations:

Optim.  Iteration  HEI  E(HEI)-E(0)  max(|Fp|)   RMS(Fp)    dS
Switch-on CI threshold               0.020000 
   LBFGS     0      5    0.022099    0.036456   0.007015  7.8858       
   LBFGS     1      5    0.020046    0.022915   0.005214  7.8616       
   LBFGS     2      5    0.019217    0.019829   0.003941  7.8728       

Image  5 will be converted to a climbing image in the next iteration (max(|Fp|) < 0.0200) 

Optim.  Iteration  CI   E(CI)-E(0)   max(|Fp|)   RMS(Fp)    dS     max(|FCI|)   RMS(FCI)
Convergence thresholds               0.020000   0.010000            0.002000    0.001000 
   LBFGS     3      5    0.018681    0.017082   0.003162  7.8896    0.017753    0.005434       
   LBFGS     4      5    0.018417    0.020008   0.003128  7.8969    0.020183    0.005590       
   LBFGS     5      4    0.018003    0.016891   0.003743  7.9349    0.016875    0.005730       
   LBFGS     6      4    0.017822    0.015524   0.002843  7.9501    0.015175    0.004990       
   LBFGS     7      4    0.017500    0.010785   0.002298  7.9276    0.010097    0.004205       
   LBFGS     8      4    0.017288    0.009801   0.001690  7.9121    0.009277    0.003064       
   LBFGS     9      4    0.017169    0.011850   0.002157  7.8766    0.010339    0.003069       
   LBFGS    10      5    0.017139    0.006763   0.001291  7.8786    0.008838    0.002328       
   LBFGS    11      5    0.017080    0.005217   0.001056  7.8825    0.006994    0.001893       
   LBFGS    12      5    0.016967    0.004975   0.001150  7.9097    0.004028    0.001677       
   LBFGS    13      5    0.016987    0.015270   0.002577  7.9064    0.008130    0.003139       
   LBFGS    14      5    0.016874    0.003861   0.001036  7.9024    0.004061    0.001713       
   LBFGS    15      5    0.016787    0.003191   0.000702  7.8969    0.002882    0.000875       
   LBFGS    16      5    0.016707    0.005510   0.000806  7.8899    0.002239    0.000840       
   LBFGS    17      5    0.016640    0.006032   0.000899  7.8858    0.003324    0.000938       
   LBFGS    18      5    0.016569    0.005596   0.001033  7.8874    0.002162    0.000818       
   LBFGS    19      5    0.016566    0.002165   0.000536  7.8857    0.001735    0.000618       

                                .--------------------.
          ----------------------| CI-NEB convergence |-------------------------
          Item                value                   Tolerance       Converged
          ---------------------------------------------------------------------
          RMS(Fp)             0.0005359741            0.0100000000      YES
          MAX(|Fp|)           0.0021653528            0.0200000000      YES
          RMS(FCI)            0.0006183086            0.0010000000      YES
          MAX(|FCI|)          0.0017348593            0.0020000000      YES
          ---------------------------------------------------------------------

The elastic band and climbing image have converged successfully to a MEP in 19 iterations!


                    *********************H U R R A Y*********************
                    ***        THE NEB OPTIMIZATION HAS CONVERGED     ***
                    *****************************************************



---------------------------------------------------------------
                         PATH SUMMARY              
---------------------------------------------------------------
All forces in Eh/Bohr.

Image Dist.(Ang.)    E(Eh)   dE(kcal/mol)  max(|Fp|)  RMS(Fp)
  0     0.000    -323.52399      0.00       0.00059   0.00013
  1     0.836    -323.51870      3.32       0.00075   0.00032
  2     1.288    -323.51315      6.80       0.00117   0.00051
  3     1.623    -323.50949      9.10       0.00110   0.00045
  4     1.916    -323.50757     10.31       0.00195   0.00068
  5     2.192    -323.50743     10.40       0.00168   0.00057 <= CI
  6     2.476    -323.50914      9.32       0.00172   0.00063
  7     2.782    -323.51291      6.96       0.00198   0.00074
  8     3.201    -323.51987      2.59       0.00217   0.00078
  9     4.173    -323.53025     -3.93       0.00032   0.00008

Straight line distance between images along the path:
        D( 0- 1) =   0.8362 Ang.
        D( 1- 2) =   0.4515 Ang.
        D( 2- 3) =   0.3352 Ang.
        D( 3- 4) =   0.2927 Ang.
        D( 4- 5) =   0.2758 Ang.
        D( 5- 6) =   0.2842 Ang.
        D( 6- 7) =   0.3063 Ang.
        D( 7- 8) =   0.4188 Ang.
        D( 8- 9) =   0.9722 Ang.

---------------------------------------------------------------
               INFORMATION ABOUT SADDLE POINT     
---------------------------------------------------------------

Climbing image                            ....  5 
Energy                                    ....  -323.50742595 Eh
Max. abs. force                           ....  1.7349e-03 Eh/Bohr

-----------------------------------------
  SADDLE POINT (ANGSTROEM)
-----------------------------------------
O      2.716503    -0.813650    -0.896623 
N     -0.475830    -0.937004    -0.218902 
C      0.593471    -0.097589    -0.053612 
C      0.109699     1.168222     0.159026 
C     -1.638579    -0.220213    -0.127886 
C     -1.310393     1.087717     0.109621 
C      1.986040    -0.634062     0.042091 
H     -0.411819    -1.917846    -0.431311 
H      0.707934     2.051969     0.327202 
H     -2.597422    -0.703657    -0.227838 
H     -2.006758     1.900394     0.249015 
H      2.327154    -0.884280     1.069217 

-----------------------------------------
  FORCES (Eh/Bohr)
-----------------------------------------
O     -0.001366    -0.000142    -0.000955 
N      0.000277    -0.000327    -0.000129 
C      0.000941    -0.000394     0.001735 
C      0.000451    -0.000348     0.000165 
C     -0.000481     0.000114     0.000489 
C     -0.000194     0.000138    -0.000130 
C      0.000931    -0.000360    -0.000167 
H     -0.000151     0.000073     0.000121 
H      0.000001    -0.000014     0.000875 
H     -0.000818    -0.000073    -0.000842 
H     -0.000477     0.000562    -0.000802 
H      0.000613     0.000947    -0.000363 

-----------------------------------------
  UNIT TANGENT
-----------------------------------------
O     -0.259137    -0.598613    -0.137399 
N      0.012253     0.021702    -0.132606 
C     -0.001310     0.004874     0.039710 
C     -0.014101    -0.016326     0.137334 
C      0.005293     0.004493    -0.092020 
C     -0.009984    -0.013587     0.039894 
C      0.009602     0.018149     0.009783 
H      0.027266     0.019501    -0.117017 
H     -0.020005    -0.022282     0.196308 
H      0.008385     0.002163    -0.107186 
H     -0.014134    -0.018748     0.049795 
H      0.255874     0.598676     0.113405 
 => Unit tangent is an approximation to the TS mode at the saddle point

Next a TS optimization is performed on the CI from the NEB run.

         *************************************************************
         *                       TS OPTIMIZATION                     *
         *************************************************************


Following output files will be written:
Converged TS will be written to          ....  /scratch/c.c21095646/orca.56479612/orca_NEB-TS_converged.xyz
                                         ....  /scratch/c.c21095646/orca.56479612/orca.xyz
Current trajectory will be written to    ....  /scratch/c.c21095646/orca.56479612/orca_trj.xyz
Initial Hessian will be stored in        ....  /scratch/c.c21095646/orca.56479612/orca.appr.hess
Geometry optimization settings:
Update method            Update   .... Bofill
Choice of coordinates    CoordSys .... Z-matrix Internals
Initial Hessian          InHess   .... Read

Convergence Tolerances:
Energy Change            TolE     ....  5.0000e-06 Eh
Max. Gradient            TolMAXG  ....  3.0000e-04 Eh/bohr
RMS Gradient             TolRMSG  ....  1.0000e-04 Eh/bohr
Max. Displacement        TolMAXD  ....  4.0000e-03 bohr
RMS Displacement         TolRMSD  ....  2.0000e-03 bohr
Strict Convergence                ....  False
------------------------------------------------------------------------------
                        ORCA OPTIMIZATION COORDINATE SETUP
------------------------------------------------------------------------------

The optimization will be done in new redundant internal coordinates
Making redundant internal coordinates   ...  (new redundants) done
Following TS mode number                ...     0
TS-active-atoms for coordinate setup... 0 11 
Evaluating the initial hessian          ... (Reading Exact Hessian)...  
InHessName: /scratch/c.c21095646/orca.56479612/orca.appr.hess	The file </scratch/c.c21095646/orca.56479612/orca.appr.hess> is opened as a .hess file
done
done
Diagonalizing the Hessian               .... done
Dimension of the hessian                .... 56
Lowest eigenvalues of the non projected Hessian:
 -0.010692436 -0.000000000 -0.000000000 -0.000000000 -0.000000000
done
Evaluating the coordinates              ...  done
Calculating the B-matrix                .... done
Calculating the G-matrix                .... done
Diagonalizing the G-matrix              .... done
The first mode is                       ....   26
The number of degrees of freedom        ....   30

    -----------------------------------------------------------------
                    Redundant Internal Coordinates


    -----------------------------------------------------------------
         Definition                    Initial Value    d2E/dq (diagonal element)
    -----------------------------------------------------------------
      1. B(C   2,N   1)                  1.3694         0.533015   
      2. B(C   2,O   0)                  2.3939         0.121543   
      3. B(C   3,C   2)                  1.3717         0.587779   
      4. B(C   4,N   1)                  1.3690         0.533684   
      5. B(C   5,C   4)                  1.3692         0.592795   
      6. B(C   5,C   3)                  1.4232         0.490827   
      7. B(C   6,C   2)                  1.4954         0.320461   
      8. B(C   6,O   0)                  1.2029         0.439155   
      9. B(H   7,N   1)                  1.0056         0.439734   
     10. B(H   8,C   3)                  1.0804         0.373080   
     11. B(H   9,C   4)                  1.0785         0.375686   
     12. B(H  10,C   5)                  1.0793         0.374594   
     13. B(H  11,O   0)                  2.0053         0.120235   
     14. B(H  11,C   6)                  1.1108         0.273196   
     15. A(C   2,N   1,C   4)          109.5263         0.144299   
     16. A(C   2,N   1,H   7)          125.0056         0.213871   
     17. A(C   4,N   1,H   7)          125.3669         0.214009   
     18. A(N   1,C   2,C   6)          120.9952         0.233213   
     19. A(N   1,C   2,C   3)          107.9975         0.147504   
     20. A(C   3,C   2,C   6)          130.5092         0.234725   
     21. A(C   5,C   3,H   8)          127.1706         0.211731   
     22. A(C   2,C   3,C   5)          107.1171         0.142778   
     23. A(C   2,C   3,H   8)          125.7118         0.213613   
     24. A(C   5,C   4,H   9)          131.1001         0.215220   
     25. A(N   1,C   4,H   9)          120.9491         0.213742   
     26. A(N   1,C   4,C   5)          107.9455         0.145720   
     27. A(C   3,C   5,H  10)          126.6358         0.211826   
     28. A(C   3,C   5,C   4)          107.4102         0.142534   
     29. A(C   4,C   5,H  10)          125.9469         0.213788   
     30. A(C   2,C   6,H  11)          115.2107         0.225521   
     31. A(O   0,C   6,H  11)          120.0965         0.143141   
     32. A(O   0,C   6,C   2)          124.6877         0.150630   
     33. D(C   3,C   2,N   1,C   4)      0.6067         0.007402   
     34. D(C   3,C   2,N   1,H   7)    177.1068         0.009849   
     35. D(C   6,C   2,N   1,C   4)    173.3196         0.009880   
     36. D(C   6,C   2,N   1,H   7)    -10.1804         0.012055   
     37. D(H   8,C   3,C   2,N   1)    179.7831         0.008728   
     38. D(C   5,C   3,C   2,N   1)     -0.4373         0.006733   
     39. D(C   5,C   3,C   2,C   6)   -172.2153         0.009837   
     40. D(H   8,C   3,C   2,C   6)      8.0051         0.011816   
     41. D(H   9,C   4,N   1,H   7)      3.7310         0.012954   
     42. D(H   9,C   4,N   1,C   2)   -179.7846         0.009631   
     43. D(C   5,C   4,N   1,H   7)   -177.0167         0.010275   
     44. D(C   5,C   4,N   1,C   2)     -0.5323         0.008224   
     45. D(H  10,C   5,C   3,C   2)    179.1914         0.009067   
     46. D(C   4,C   5,C   3,H   8)    179.8913         0.008981   
     47. D(C   4,C   5,C   3,C   2)      0.1159         0.007400   
     48. D(H  10,C   5,C   4,H   9)      0.3160         0.014169   
     49. D(H  10,C   5,C   4,N   1)   -178.8331         0.009339   
     50. D(C   3,C   5,C   4,H   9)    179.3996         0.011252   
     51. D(C   3,C   5,C   4,N   1)      0.2505         0.008045   
     52. D(H  10,C   5,C   3,H   8)     -1.0332         0.011387   
     53. D(H  11,C   6,C   2,C   3)     81.3166         0.005408   
     54. D(H  11,C   6,C   2,N   1)    -89.5539         0.003826   
     55. D(O   0,C   6,C   2,C   3)    -99.5047         0.004772   
     56. D(O   0,C   6,C   2,N   1)     89.6249         0.003117   
    -----------------------------------------------------------------

Number of atoms                         .... 12
Number of degrees of freedom            .... 56

         *************************************************************
         *                GEOMETRY OPTIMIZATION CYCLE   1            *
         *************************************************************


           ************************************************************
           *        Program running with 40 parallel MPI-processes    *
           *              working on a common directory               *
           ************************************************************
------------------------------------------------------------------------------
                           ORCA GTO INTEGRAL CALCULATION
                           -- RI-GTO INTEGRALS CHOSEN --
------------------------------------------------------------------------------
------------------------------------------------------------------------------
                   ___                                                        
                  /   \      - P O W E R E D   B Y -                         
                 /     \                                                     
                 |  |  |   _    _      __       _____    __    __             
                 |  |  |  | |  | |    /  \     |  _  \  |  |  /  |          
                  \  \/   | |  | |   /    \    | | | |  |  | /  /          
                 / \  \   | |__| |  /  /\  \   | |_| |  |  |/  /          
                |  |  |   |  __  | /  /__\  \  |    /   |      \           
                |  |  |   | |  | | |   __   |  |    \   |  |\   \          
                \     /   | |  | | |  |  |  |  | |\  \  |  | \   \       
                 \___/    |_|  |_| |__|  |__|  |_| \__\ |__|  \__/        
                                                                              
                      - O R C A' S   B I G   F R I E N D -                    
                                      &                                       
                       - I N T E G R A L  F E E D E R -                       
                                                                              
 v1 FN, 2020, v2 2021                                                         
------------------------------------------------------------------------------


Reading SHARK input file /scratch/c.c21095646/orca.56479612/orca.SHARKINP.tmp ... ok
----------------------
SHARK INTEGRAL PACKAGE
----------------------

Number of atoms                             ...     12
Number of basis functions                   ...    247
Number of shells                            ...     97
Maximum angular momentum                    ...      3
Integral batch strategy                     ... SHARK/LIBINT Hybrid
RI-J (if used) integral strategy            ... SPLIT-RIJ (Revised 2003 algorithm where possible)
Printlevel                                  ...      1
Contraction scheme used                     ... SEGMENTED contraction
Coulomb Range Separation                    ... NOT USED
Exchange Range Separation                   ... Long Range
   Mu parameter                             ...  0.300000
   Scaling (regular/separated)              ...  0.167000  0.833000
Finite Nucleus Model                        ... NOT USED
Auxiliary Coulomb fitting basis             ... AVAILABLE
   # of basis functions in Aux-J            ...    398
   # of shells in Aux-J                     ...    130
   Maximum angular momentum in Aux-J        ...      4
Auxiliary J/K fitting basis                 ... NOT available
Auxiliary Correlation fitting basis         ... NOT available
Auxiliary 'external' fitting basis          ... NOT available
Integral threshold                          ...     2.500000e-11
Primitive cut-off                           ...     2.500000e-12
Primitive pair pre-selection threshold      ...     2.500000e-12

Calculating pre-screening integrals         ... done (  0.1 sec) Dimension = 97
Organizing shell pair data                  ... done (  0.1 sec)
Shell pair information
Total number of shell pairs                 ...      4753
Shell pairs after pre-screening             ...      4427
Total number of primitive shell pairs       ...     14704
Primitive shell pairs kept                  ...     10539
          la=0 lb=0:   1135 shell pairs
          la=1 lb=0:   1221 shell pairs
          la=1 lb=1:    342 shell pairs
          la=2 lb=0:    654 shell pairs
          la=2 lb=1:    354 shell pairs
          la=2 lb=2:    102 shell pairs
          la=3 lb=0:    322 shell pairs
          la=3 lb=1:    176 shell pairs
          la=3 lb=2:     94 shell pairs
          la=3 lb=3:     27 shell pairs

Calculating one electron integrals          ... done (  0.1 sec)
Calculating RI/J V-Matrix + Cholesky decomp.... done (  0.1 sec)
Calculating Nuclear repulsion               ... done (  0.0 sec) ENN=    269.581577656986 Eh

SHARK setup successfully completed in   0.9 seconds

Maximum memory used throughout the entire GTOINT-calculation: 13.9 MB


           ************************************************************
           *        Program running with 40 parallel MPI-processes    *
           *              working on a common directory               *
           ************************************************************
-------------------------------------------------------------------------------
                                 ORCA SCF
-------------------------------------------------------------------------------

------------
SCF SETTINGS
------------
Hamiltonian:
 Density Functional     Method          .... DFT(GTOs)
 Exchange Functional    Exchange        .... WB97X-V
 Correlation Functional Correlation     .... WB97X-V
 Gradients option       PostSCFGGA      .... off
 Hybrid DFT is turned on
   Fraction HF Exchange ScalHFX         ....  0.167000
   Scaling of DF-GGA-X  ScalDFX         ....  0.000000
   Scaling of DF-GGA-C  ScalDFC         ....  1.000000
   Scaling of DF-LDA-C  ScalLDAC        ....  1.000000
   Perturbative correction              ....  0.000000
   Density functional embedding theory  .... OFF
 Long-range corrected/Screened/Range-Separated Hybrid DFT is turned on
   Amount of maximum screened exact exchange              ....  0.833000
   Range separation parameter mu (erf(mu*r12)/r12)        ....  0.300000
   NL short-range parameter             ....  6.000000
   NL long-range parameter              ....  0.010000
 RI-approximation to the Coulomb term is turned on
   Number of AuxJ basis functions       .... 398
   RIJ-COSX (HFX calculated with COS-X)).... on


General Settings:
 Integral files         IntName         .... /scratch/c.c21095646/orca.56479612/orca
 Hartree-Fock type      HFTyp           .... RHF
 Total Charge           Charge          ....    0
 Multiplicity           Mult            ....    1
 Number of Electrons    NEL             ....   50
 Basis Dimension        Dim             ....  247
 Nuclear Repulsion      ENuc            ....    269.5815776570 Eh

Convergence Acceleration:
 DIIS                   CNVDIIS         .... on
   Start iteration      DIISMaxIt       ....    12
   Startup error        DIISStart       ....  0.200000
   # of expansion vecs  DIISMaxEq       ....     5
   Bias factor          DIISBfac        ....   1.050
   Max. coefficient     DIISMaxC        ....  10.000
 Trust-Rad. Augm. Hess. CNVTRAH         .... auto
   Auto Start mean grad. ratio tolernc. ....  1.125000
   Auto Start start iteration           ....     1
   Auto Start num. interpolation iter.  ....    10
   Max. Number of Micro iterations      ....    16
   Max. Number of Macro iterations      .... Maxiter - #DIIS iter
   Number of Davidson start vectors     ....     2
   Converg. threshold I  (grad. norm)   ....   1.000e-05
   Converg. threshold II (energy diff.) ....   1.000e-08
   Grad. Scal. Fac. for Micro threshold ....   0.100
   Minimum threshold for Micro iter.    ....   0.010
   NR start threshold (gradient norm)   ....   0.001
   Initial trust radius                 ....   0.400
   Minimum AH scaling param. (alpha)    ....   1.000
   Maximum AH scaling param. (alpha)    .... 1000.000
   Orbital update algorithm             .... Taylor
   White noise on init. David. guess    .... on
   Maximum white noise                  ....   0.010
   Quad. conv. algorithm                .... NR
 SOSCF                  CNVSOSCF        .... on
   Start iteration      SOSCFMaxIt      ....   150
   Startup grad/error   SOSCFStart      ....  0.003300
 Level Shifting         CNVShift        .... on
   Level shift para.    LevelShift      ....    0.2500
   Turn off err/grad.   ShiftErr        ....    0.0010
 Zerner damping         CNVZerner       .... off
 Static damping         CNVDamp         .... on
   Fraction old density DampFac         ....    0.7000
   Max. Damping (<1)    DampMax         ....    0.9800
   Min. Damping (>=0)   DampMin         ....    0.0000
   Turn off err/grad.   DampErr         ....    0.1000
 Fernandez-Rico         CNVRico         .... off

SCF Procedure:
 Maximum # iterations   MaxIter         ....   125
 SCF integral mode      SCFMode         .... Direct
   Integral package                     .... SHARK and LIBINT hybrid scheme
 Reset frequency        DirectResetFreq ....    20
 Integral Threshold     Thresh          ....  2.500e-11 Eh
 Primitive CutOff       TCut            ....  2.500e-12 Eh

Convergence Tolerance:
 Convergence Check Mode ConvCheckMode   .... Total+1el-Energy
 Convergence forced     ConvForced      .... 0
 Energy Change          TolE            ....  1.000e-08 Eh
 1-El. energy change                    ....  1.000e-05 Eh
 Orbital Gradient       TolG            ....  1.000e-05
 Orbital Rotation angle TolX            ....  1.000e-05
 DIIS Error             TolErr          ....  5.000e-07


Diagonalization of the overlap matrix:
Smallest eigenvalue                        ... 4.210e-05
Time for diagonalization                   ...    0.009 sec
Threshold for overlap eigenvalues          ... 1.000e-08
Number of eigenvalues below threshold      ... 0
Time for construction of square roots      ...    0.037 sec
Total time needed                          ...    0.048 sec

---------------------
INITIAL GUESS: MOREAD
---------------------
Guess MOs are being read from file: /scratch/c.c21095646/orca.56479612/orca.gbw
Input Geometry matches current geometry (good)
Input basis set matches current basis set (good)
MOs were renormalized
MOs were reorthogonalized (Cholesky)
                      ------------------
                      INITIAL GUESS DONE (   0.0 sec)
                      ------------------
-------------------
DFT GRID GENERATION
-------------------

General Integration Accuracy     IntAcc      ... 4.388
Radial Grid Type                 RadialGrid  ... OptM3 with GC (2021)
Angular Grid (max. ang.)         AngularGrid ... 4 (Lebedev-302)
Angular grid pruning method      GridPruning ... 4 (adaptive)
Weight generation scheme         WeightScheme... Becke
Basis function cutoff            BFCut       ... 1.0000e-11
Integration weight cutoff        WCut        ... 1.0000e-14
Angular grids for H and He will be reduced by one unit
Partially contracted basis set               ... off
Rotationally invariant grid construction     ... off

Total number of grid points                  ...    58492
Total number of batches                      ...      921
Average number of points per batch           ...       63
Average number of grid points per atom       ...     4874

------------------
NL GRID GENERATION
------------------

General Integration Accuracy     IntAcc      ... 4.004
Radial Grid Type                 RadialGrid  ... OptM3 with GC (2021)
Angular Grid (max. ang.)         AngularGrid ... 2 (Lebedev-110)
Angular grid pruning method      GridPruning ... 4 (adaptive)
Weight generation scheme         WeightScheme... Becke
Basis function cutoff            BFCut       ... 1.0000e-10
Integration weight cutoff        WCut        ... 1.0000e-14
Angular grids for H and He will be reduced by one unit
Partially contracted basis set               ... off
Rotationally invariant grid construction     ... off

Total number of grid points                  ...    18956
Total number of batches                      ...      300
Average number of points per batch           ...       63
Average number of grid points per atom       ...     1580
Time for grid setup =    0.464 sec

--------------------
COSX GRID GENERATION
--------------------

GRIDX 1
-------
General Integration Accuracy     IntAcc      ... 3.816
Radial Grid Type                 RadialGrid  ... OptM3 with GC (2021)
Angular Grid (max. ang.)         AngularGrid ... 1 (Lebedev-50)
Angular grid pruning method      GridPruning ... 4 (adaptive)
Weight generation scheme         WeightScheme... Becke
Basis function cutoff            BFCut       ... 1.0000e-11
Integration weight cutoff        WCut        ... 1.0000e-14
Angular grids for H and He will be reduced by one unit
Partially contracted basis set               ... on
Rotationally invariant grid construction     ... off

Total number of grid points                  ...     7475
Total number of batches                      ...      121
Average number of points per batch           ...       61
Average number of grid points per atom       ...      623
UseSFitting                                  ... on

GRIDX 2
-------
General Integration Accuracy     IntAcc      ... 4.020
Radial Grid Type                 RadialGrid  ... OptM3 with GC (2021)
Angular Grid (max. ang.)         AngularGrid ... 2 (Lebedev-110)
Angular grid pruning method      GridPruning ... 4 (adaptive)
Weight generation scheme         WeightScheme... Becke
Basis function cutoff            BFCut       ... 1.0000e-11
Integration weight cutoff        WCut        ... 1.0000e-14
Angular grids for H and He will be reduced by one unit
Partially contracted basis set               ... on
Rotationally invariant grid construction     ... off

Total number of grid points                  ...    16596
Total number of batches                      ...      265
Average number of points per batch           ...       62
Average number of grid points per atom       ...     1383
UseSFitting                                  ... on

GRIDX 3
-------
General Integration Accuracy     IntAcc      ... 4.338
Radial Grid Type                 RadialGrid  ... OptM3 with GC (2021)
Angular Grid (max. ang.)         AngularGrid ... 3 (Lebedev-194)
Angular grid pruning method      GridPruning ... 4 (adaptive)
Weight generation scheme         WeightScheme... Becke
Basis function cutoff            BFCut       ... 1.0000e-11
Integration weight cutoff        WCut        ... 1.0000e-14
Angular grids for H and He will be reduced by one unit
Partially contracted basis set               ... on
Rotationally invariant grid construction     ... off

Total number of grid points                  ...    36583
Total number of batches                      ...      578
Average number of points per batch           ...       63
Average number of grid points per atom       ...     3049
UseSFitting                                  ... on

Time for X-Grid setup             =    0.472 sec

--------------
SCF ITERATIONS
--------------
ITER       Energy         Delta-E        Max-DP      RMS-DP      [F,P]     Damp
               ***  Starting incremental Fock matrix formation  ***
                      *** Initiating the SOSCF procedure ***
                      *** Re-Reading the Fockian *** 
                      *** Removing any level shift *** 
ITER      Energy       Delta-E        Grad      Rot      Max-DP    RMS-DP
  0   -323.50743690 -323.5074369023  0.000002  0.000002  0.000006  0.000000
               *** Restarting incremental Fock matrix formation ***
                  ***Gradient check signals convergence***
              ***Rediagonalizing the Fockian in SOSCF/NRSCF***

               *****************************************************
               *                     SUCCESS                       *
               *           SCF CONVERGED AFTER   1 CYCLES          *
               *****************************************************

Old exchange energy                            =    -13.640006320 Eh
New exchange energy                            =    -13.639995365 Eh
Exchange energy change after final integration =      0.000010956 Eh
Total energy after final integration           =   -323.507425947 Eh
Final COS-X integration done in                =     1.033 sec

----------------
TOTAL SCF ENERGY
----------------

Total Energy       :         -323.50742595 Eh           -8803.08460 eV

Components:
Nuclear Repulsion  :          269.58157766 Eh            7335.68767 eV
Electronic Energy  :         -593.08900360 Eh          -16138.77227 eV
One Electron Energy:         -971.54567388 Eh          -26437.10182 eV
Two Electron Energy:          378.45667027 Eh           10298.32956 eV
Max COSX asymmetry :            0.00000047 Eh               0.00001 eV

Virial components:
Potential Energy   :         -645.84992526 Eh          -17574.46994 eV
Kinetic Energy     :          322.34249932 Eh            8771.38533 eV
Virial Ratio       :            2.00361394


DFT components:
N(Alpha)           :       25.000016433033 electrons
N(Beta)            :       25.000016433033 electrons
N(Total)           :       50.000032866065 electrons
E(X)               :      -28.898227895241 Eh       
E(C)               :       -2.097955345272 Eh       
NL Energy, E(C,NL) :        0.193807950460 Eh       
E(XC)              :      -30.802375290052 Eh       
DFET-embed. en.    :        0.000000000000 Eh       

---------------
SCF CONVERGENCE
---------------

  Last Energy change         ...   -7.4920e-11  Tolerance :   1.0000e-08
  Last MAX-Density change    ...    1.9984e-15  Tolerance :   1.0000e-07
  Last RMS-Density change    ...    2.1257e-17  Tolerance :   5.0000e-09
  Last Orbital Gradient      ...    1.4083e-06  Tolerance :   1.0000e-05
  Last Orbital Rotation      ...    3.8852e-06  Tolerance :   1.0000e-05

             **** THE GBW FILE WAS UPDATED (/scratch/c.c21095646/orca.56479612/orca.gbw) ****
             **** DENSITY /scratch/c.c21095646/orca.56479612/orca.scfp WAS UPDATED ****
             **** ENERGY FILE WAS UPDATED (/scratch/c.c21095646/orca.56479612/orca.en.tmp) ****
             **** THE GBW FILE WAS UPDATED (/scratch/c.c21095646/orca.56479612/orca.gbw) ****
             **** DENSITY /scratch/c.c21095646/orca.56479612/orca.scfp WAS UPDATED ****
----------------
ORBITAL ENERGIES
----------------

  NO   OCC          E(Eh)            E(eV) 
   0   2.0000     -19.228498      -523.2340 
   1   2.0000     -14.468947      -393.7201 
   2   2.0000     -10.376401      -282.3562 
   3   2.0000     -10.305363      -280.4232 
   4   2.0000     -10.298350      -280.2323 
   5   2.0000     -10.265129      -279.3283 
   6   2.0000     -10.261348      -279.2255 
   7   2.0000      -1.197295       -32.5801 
   8   2.0000      -1.128033       -30.6953 
   9   2.0000      -0.918910       -25.0048 
  10   2.0000      -0.886075       -24.1113 
  11   2.0000      -0.764042       -20.7906 
  12   2.0000      -0.720682       -19.6108 
  13   2.0000      -0.700997       -19.0751 
  14   2.0000      -0.654651       -17.8140 
  15   2.0000      -0.587750       -15.9935 
  16   2.0000      -0.559598       -15.2274 
  17   2.0000      -0.555007       -15.1025 
  18   2.0000      -0.534577       -14.5466 
  19   2.0000      -0.527098       -14.3431 
  20   2.0000      -0.502389       -13.6707 
  21   2.0000      -0.487850       -13.2751 
  22   2.0000      -0.378421       -10.2974 
  23   2.0000      -0.357616        -9.7312 
  24   2.0000      -0.320858        -8.7310 
  25   0.0000       0.041611         1.1323 
  26   0.0000       0.098687         2.6854 
  27   0.0000       0.109243         2.9726 
  28   0.0000       0.138986         3.7820 
  29   0.0000       0.157205         4.2778 
  30   0.0000       0.163717         4.4550 
  31   0.0000       0.168353         4.5811 
  32   0.0000       0.182292         4.9604 
  33   0.0000       0.207689         5.6515 
  34   0.0000       0.218908         5.9568 
  35   0.0000       0.252970         6.8837 
  36   0.0000       0.257945         7.0190 
  37   0.0000       0.269236         7.3263 
  38   0.0000       0.298436         8.1208 
  39   0.0000       0.321162         8.7393 
  40   0.0000       0.330826         9.0022 
  41   0.0000       0.347189         9.4475 
  42   0.0000       0.352441         9.5904 
  43   0.0000       0.360113         9.7992 
  44   0.0000       0.381723        10.3872 
  45   0.0000       0.383973        10.4484 
  46   0.0000       0.409896        11.1538 
  47   0.0000       0.421422        11.4675 
  48   0.0000       0.439790        11.9673 
  49   0.0000       0.446885        12.1604 
  50   0.0000       0.464169        12.6307 
  51   0.0000       0.485952        13.2234 
  52   0.0000       0.498440        13.5632 
  53   0.0000       0.506661        13.7870 
  54   0.0000       0.516737        14.0611 
  55   0.0000       0.517746        14.0886 
  56   0.0000       0.527564        14.3558 
  57   0.0000       0.551005        14.9936 
  58   0.0000       0.558168        15.1885 
  59   0.0000       0.565597        15.3907 
  60   0.0000       0.597247        16.2519 
  61   0.0000       0.622421        16.9369 
  62   0.0000       0.628548        17.1037 
  63   0.0000       0.648759        17.6536 
  64   0.0000       0.673466        18.3260 
  65   0.0000       0.700006        19.0481 
  66   0.0000       0.717648        19.5282 
  67   0.0000       0.726796        19.7771 
  68   0.0000       0.731675        19.9099 
  69   0.0000       0.751141        20.4396 
  70   0.0000       0.765187        20.8218 
  71   0.0000       0.777727        21.1630 
  72   0.0000       0.841342        22.8941 
  73   0.0000       0.843160        22.9435 
  74   0.0000       0.868011        23.6198 
  75   0.0000       0.932010        25.3613 
  76   0.0000       0.956039        26.0151 
  77   0.0000       0.976735        26.5783 
  78   0.0000       1.000041        27.2125 
  79   0.0000       1.031424        28.0665 
  80   0.0000       1.056293        28.7432 
  81   0.0000       1.061149        28.8753 
  82   0.0000       1.083795        29.4915 
  83   0.0000       1.099371        29.9154 
  84   0.0000       1.122714        30.5506 
  85   0.0000       1.161583        31.6083 
  86   0.0000       1.205001        32.7897 
  87   0.0000       1.216953        33.1150 
  88   0.0000       1.246459        33.9179 
  89   0.0000       1.288672        35.0665 
  90   0.0000       1.305184        35.5159 
  91   0.0000       1.320366        35.9290 
  92   0.0000       1.335833        36.3499 
  93   0.0000       1.350681        36.7539 
  94   0.0000       1.385329        37.6967 
  95   0.0000       1.401787        38.1446 
  96   0.0000       1.461287        39.7636 
  97   0.0000       1.481283        40.3078 
  98   0.0000       1.494507        40.6676 
  99   0.0000       1.536399        41.8076 
 100   0.0000       1.549258        42.1575 
 101   0.0000       1.559097        42.4252 
 102   0.0000       1.579868        42.9904 
 103   0.0000       1.594786        43.3963 
 104   0.0000       1.631226        44.3879 
 105   0.0000       1.638401        44.5831 
 106   0.0000       1.651063        44.9277 
 107   0.0000       1.687564        45.9210 
 108   0.0000       1.710113        46.5345 
 109   0.0000       1.733114        47.1604 
 110   0.0000       1.740865        47.3713 
 111   0.0000       1.754952        47.7547 
 112   0.0000       1.796702        48.8907 
 113   0.0000       1.809414        49.2367 
 114   0.0000       1.859184        50.5910 
 115   0.0000       1.907687        51.9108 
 116   0.0000       1.937438        52.7204 
 117   0.0000       1.994165        54.2640 
 118   0.0000       2.002584        54.4931 
 119   0.0000       2.037627        55.4467 
 120   0.0000       2.049792        55.7777 
 121   0.0000       2.065429        56.2032 
 122   0.0000       2.075880        56.4876 
 123   0.0000       2.116754        57.5998 
 124   0.0000       2.153255        58.5931 
 125   0.0000       2.190623        59.6099 
 126   0.0000       2.205730        60.0210 
 127   0.0000       2.233347        60.7725 
 128   0.0000       2.267836        61.7109 
 129   0.0000       2.309166        62.8356 
 130   0.0000       2.334532        63.5258 
 131   0.0000       2.343266        63.7635 
 132   0.0000       2.388063        64.9825 
 133   0.0000       2.398936        65.2784 
 134   0.0000       2.429364        66.1063 
 135   0.0000       2.475019        67.3487 
 136   0.0000       2.518095        68.5208 
 137   0.0000       2.541441        69.1561 
 138   0.0000       2.615090        71.1602 
 139   0.0000       2.672866        72.7324 
 140   0.0000       2.691158        73.2301 
 141   0.0000       2.702211        73.5309 
 142   0.0000       2.713936        73.8500 
 143   0.0000       2.726328        74.1872 
 144   0.0000       2.751658        74.8764 
 145   0.0000       2.767916        75.3188 
 146   0.0000       2.779767        75.6413 
 147   0.0000       2.820366        76.7461 
 148   0.0000       2.843152        77.3661 
 149   0.0000       2.844294        77.3972 
 150   0.0000       2.851211        77.5854 
 151   0.0000       2.879497        78.3551 
 152   0.0000       2.939378        79.9845 
 153   0.0000       2.961213        80.5787 
 154   0.0000       2.974130        80.9302 
 155   0.0000       3.001855        81.6846 
 156   0.0000       3.041528        82.7642 
 157   0.0000       3.061138        83.2978 
 158   0.0000       3.072704        83.6125 
 159   0.0000       3.089905        84.0806 
 160   0.0000       3.111680        84.6731 
 161   0.0000       3.130143        85.1755 
 162   0.0000       3.161278        86.0228 
 163   0.0000       3.169561        86.2481 
 164   0.0000       3.176841        86.4462 
 165   0.0000       3.189189        86.7822 
 166   0.0000       3.211030        87.3766 
 167   0.0000       3.220924        87.6458 
 168   0.0000       3.225459        87.7692 
 169   0.0000       3.260009        88.7093 
 170   0.0000       3.298176        89.7479 
 171   0.0000       3.303820        89.9015 
 172   0.0000       3.325361        90.4877 
 173   0.0000       3.333551        90.7105 
 174   0.0000       3.380206        91.9801 
 175   0.0000       3.418113        93.0116 
 176   0.0000       3.423319        93.1533 
 177   0.0000       3.454608        94.0047 
 178   0.0000       3.462409        94.2169 
 179   0.0000       3.479182        94.6733 
 180   0.0000       3.539751        96.3215 
 181   0.0000       3.565887        97.0327 
 182   0.0000       3.576996        97.3350 
 183   0.0000       3.590547        97.7037 
 184   0.0000       3.606810        98.1463 
 185   0.0000       3.655296        99.4657 
 186   0.0000       3.703947       100.7895 
 187   0.0000       3.727320       101.4255 
 188   0.0000       3.750887       102.0668 
 189   0.0000       3.775549       102.7379 
 190   0.0000       3.821522       103.9889 
 191   0.0000       3.860298       105.0440 
 192   0.0000       3.923055       106.7517 
 193   0.0000       3.971843       108.0794 
 194   0.0000       4.046750       110.1177 
 195   0.0000       4.081519       111.0638 
 196   0.0000       4.096708       111.4771 
 197   0.0000       4.142813       112.7317 
 198   0.0000       4.217286       114.7582 
 199   0.0000       4.288640       116.6998 
 200   0.0000       4.304746       117.1381 
 201   0.0000       4.326422       117.7279 
 202   0.0000       4.367002       118.8322 
 203   0.0000       4.414565       120.1264 
 204   0.0000       4.468840       121.6033 
 205   0.0000       4.495267       122.3224 
 206   0.0000       4.511218       122.7565 
 207   0.0000       4.609463       125.4299 
 208   0.0000       4.678470       127.3076 
 209   0.0000       4.762113       129.5837 
 210   0.0000       4.813910       130.9931 
 211   0.0000       4.866705       132.4298 
 212   0.0000       4.870126       132.5229 
 213   0.0000       4.895580       133.2155 
 214   0.0000       4.922072       133.9364 
 215   0.0000       5.008658       136.2925 
 216   0.0000       5.044113       137.2573 
 217   0.0000       5.114858       139.1824 
 218   0.0000       5.127087       139.5151 
 219   0.0000       5.169418       140.6670 
 220   0.0000       5.269667       143.3949 
 221   0.0000       5.282887       143.7547 
 222   0.0000       5.316310       144.6641 
 223   0.0000       5.326854       144.9511 
 224   0.0000       5.406450       147.1170 
 225   0.0000       5.561471       151.3353 
 226   0.0000       5.634353       153.3185 
 227   0.0000       5.668673       154.2524 
 228   0.0000       5.779204       157.2601 
 229   0.0000       5.819986       158.3699 
 230   0.0000       5.990675       163.0145 
 231   0.0000       6.078316       165.3994 
 232   0.0000       6.213518       169.0784 
 233   0.0000       6.421278       174.7319 
 234   0.0000       6.458023       175.7317 
 235   0.0000       6.511935       177.1988 
 236   0.0000       6.580552       179.0659 
 237   0.0000       6.882525       187.2830 
 238   0.0000       7.030705       191.3152 
 239   0.0000       7.161265       194.8679 
 240   0.0000      22.351536       608.2162 
 241   0.0000      22.697466       617.6294 
 242   0.0000      22.857189       621.9757 
 243   0.0000      22.923754       623.7871 
 244   0.0000      23.235717       632.2760 
 245   0.0000      32.381850       881.1549 
 246   0.0000      43.807444      1192.0612 
-------
TIMINGS
-------

Total SCF time: 0 days 0 hours 0 min 5 sec 

Total time                  ....       5.736 sec
Sum of individual times     ....       4.668 sec  ( 81.4%)

Fock matrix formation       ....       3.583 sec  ( 62.5%)
  Split-RI-J                ....       0.670 sec  ( 18.7% of F)
  Chain of spheres X        ....       2.027 sec  ( 56.6% of F)
  XC integration            ....       0.643 sec  ( 17.9% of F)
    Basis function eval.    ....       0.033 sec  (  5.2% of XC)
    Density eval.           ....       0.025 sec  (  3.9% of XC)
    XC-Functional eval.     ....       0.157 sec  ( 24.4% of XC)
    XC-Potential eval.      ....       0.026 sec  (  4.1% of XC)
Diagonalization             ....       0.045 sec  (  0.8%)
Density matrix formation    ....       0.008 sec  (  0.1%)
Population analysis         ....       0.000 sec  (  0.0%)
Initial guess               ....       0.021 sec  (  0.4%)
Orbital Transformation      ....       0.000 sec  (  0.0%)
Orbital Orthonormalization  ....       0.013 sec  (  0.2%)
DIIS solution               ....       0.042 sec  (  0.7%)
SOSCF solution              ....       0.033 sec  (  0.6%)
Grid generation             ....       0.935 sec  ( 16.3%)

Maximum memory used throughout the entire SCF-calculation: 70.5 MB

-------------------------   --------------------
FINAL SINGLE POINT ENERGY      -323.507425946852
-------------------------   --------------------



           ************************************************************
           *        Program running with 40 parallel MPI-processes    *
           *              working on a common directory               *
           ************************************************************
------------------------------------------------------------------------------
                         ORCA SCF GRADIENT CALCULATION
------------------------------------------------------------------------------

 ... reading COSX grid (gridx3)
Gradient of the Kohn-Sham DFT energy:
Kohn-Sham wavefunction type      ... RKS
Hartree-Fock exchange scaling    ...    0.167
Number of operators              ...    1
Number of atoms                  ...   12
Basis set dimensions             ...  247
Integral neglect threshold       ... 2.5e-11
Integral primitive cutoff        ... 2.5e-12
SHARK Integral package           ... ON

Nuc. rep. gradient       (SHARK) ... done (  0.0 sec)
HCore & Overlap gradient (SHARK) ... done (  0.0 sec)
RI-J gradient            (SHARK) ... done (  0.3 sec)
COSX-gradient                    ... done (  1.0 sec)
Exchange-correlation gradient    ... done
NL correlation gradient          ... done

------------------
CARTESIAN GRADIENT
------------------

   1   O   :    0.001365550    0.000142672    0.000956015
   2   N   :   -0.000277166    0.000327089    0.000128744
   3   C   :   -0.000941836    0.000394115   -0.001734759
   4   C   :   -0.000451518    0.000348477   -0.000165792
   5   C   :    0.000482732   -0.000114129   -0.000489057
   6   C   :    0.000195340   -0.000138577    0.000130161
   7   C   :   -0.000930141    0.000358652    0.000166093
   8   H   :    0.000151166   -0.000072321   -0.000120379
   9   H   :   -0.000001277    0.000013551   -0.000874510
  10   H   :    0.000817662    0.000073369    0.000842091
  11   H   :    0.000477419   -0.000562499    0.000802073
  12   H   :   -0.000613078   -0.000946761    0.000362107

Difference to translation invariance:
           :    0.0002748528   -0.0001763648    0.0000027879

Difference to rotation invariance:
           :   -0.0008443737   -0.0018482662    0.0006968685

Norm of the cartesian gradient     ...    0.0037103239
RMS gradient                       ...    0.0006183873
MAX gradient                       ...    0.0017347590

-------
TIMINGS
-------

Total SCF gradient time            ...        2.329 sec

One electron gradient       ....       0.018 sec  (  0.8%)
RI-J Coulomb gradient       ....       0.302 sec  ( 13.0%)
COSX gradient               ....       1.042 sec  ( 44.7%)
XC gradient                 ....       0.222 sec  (  9.5%)
NL correlation gradient     ....       0.242 sec  ( 10.4%)

Maximum memory used throughout the entire SCFGRAD-calculation: 44.0 MB
------------------------------------------------------------------------------
                         ORCA GEOMETRY RELAXATION STEP
------------------------------------------------------------------------------

Reading the OPT-File                    .... done
Getting information on internals        .... done
Copying old internal coords+grads       .... done
Making the new internal coordinates     .... (new redundants).... done
Validating the new internal coordinates .... (new redundants).... done
Calculating the B-matrix                .... done
Calculating the G,G- and P matrices     .... done
Transforming gradient to internals      .... done
Projecting the internal gradient        .... done
Number of atoms                         ....  12
Number of internal coordinates          ....  56
Current Energy                          ....  -323.507425947 Eh
Current gradient norm                   ....     0.003710324 Eh/bohr
Maximum allowed component of the step   ....  0.300
Current trust radius                    ....  0.100
Evaluating the initial hessian          ....  (read) 
(Reading Exact Hessian)...  
InHessName: /scratch/c.c21095646/orca.56479612/orca.appr.hess	The file </scratch/c.c21095646/orca.56479612/orca.appr.hess> is opened as a .hess file
done
done
Diagonalizing the Hessian               .... done
Dimension of the hessian                .... 56
Lowest eigenvalues of the non projected Hessian:
 -0.010692436 -0.000000000 -0.000000000 -0.000000000 -0.000000000
done
Projecting the Hessian                  .... done
Diagonalizing the Hessian               .... done
Dimension of the hessian                ....  56
Lowest eigenvalues of the Hessian:
 -0.010692436  0.012337765  0.023438906  0.025253657  0.027116200
Hessian has   1 negative eigenvalues
Taking P-RFO step
Searching for lambda that maximizes along the lowest mode
TS mode is mode number   0 with eigenvalue  -0.01069244 and components:
   1.   -0.00047555
   2.    0.01482454
   3.    0.00047382
   4.   -0.00098502
   5.    0.00231260
   6.   -0.00048269
   7.    0.00375794
   8.    0.05167966
   9.   -0.00009140
  10.    0.00125058
  11.   -0.00032097
  12.    0.00011242
  13.    0.11898196
  14.    0.04574569
  15.   -0.00136066
  16.    0.00030215
  17.    0.00454646
  18.    0.00679985
  19.    0.00257094
  20.   -0.00351145
  21.    0.00259499
  22.   -0.00193113
  23.   -0.00072986
  24.   -0.00272731
  25.    0.00198224
  26.    0.00031147
  27.   -0.00363062
  28.    0.00049650
  29.    0.00337645
  30.   -0.00373425
  31.    0.03168705
  32.   -0.02821027
  33.   -0.00828001
  34.    0.05210430
  35.    0.03397220
  36.    0.09435651
  37.    0.02572918
  38.    0.00811597
  39.   -0.04065143
  40.   -0.02303822
  41.   -0.02472327
  42.    0.03574582
  43.   -0.05543422
  44.    0.00503487
  45.    0.01081963
  46.   -0.02305582
  47.   -0.00509855
  48.   -0.05050407
  49.   -0.01560425
  50.   -0.03480821
  51.    0.00009161
  52.   -0.00713765
  53.   -0.45020628
  54.   -0.50392211
  55.   -0.47081264
  56.   -0.52452847

Lambda that maximizes along the TS mode:       0.00032384
Searching for lambda that minimizes along all other modes
In cycle   1: lambdaN =  -0.00047582   step =   0.00047582
In cycle   2: lambdaN =  -0.00047597   step =   0.00000014
In cycle   3: lambdaN =  -0.00047597   step =   0.00000000
Lambda that minimizes along all other modes:  -0.00047597
Calculated stepsize too large (   0.2138 >    0.1000). Scaled with    0.4677.
The final length of the internal step   ....       0.1000
Converting the step to cartesian space:
 Initial RMS(Int)=    0.0133630621
Transforming coordinates:
 Iter   0:  RMS(Cart)=    0.0213778968 RMS(Int)=    1.1844931098
 Iter   1:  RMS(Cart)=    0.0003290565 RMS(Int)=    0.0004233444
 Iter   2:  RMS(Cart)=    0.0000120505 RMS(Int)=    0.0000082177
 Iter   3:  RMS(Cart)=    0.0000004259 RMS(Int)=    0.0000005679
 Iter   4:  RMS(Cart)=    0.0000000179 RMS(Int)=    0.0000000127
done
Storing new coordinates                 .... done

                                .--------------------.
          ----------------------|Geometry convergence|-------------------------
          Item                value                   Tolerance       Converged
          ---------------------------------------------------------------------
          RMS gradient        0.0006957333            0.0001000000      NO
          MAX gradient        0.0018274687            0.0003000000      NO
          RMS step            0.0133630621            0.0020000000      NO
          MAX step            0.0556637335            0.0040000000      NO
          ........................................................
          Max(Bonds)      0.0048      Max(Angles)    0.14
          Max(Dihed)        3.19      Max(Improp)    0.00
          ---------------------------------------------------------------------

The optimization has not yet converged - more geometry cycles are needed


    ---------------------------------------------------------------------------
                         Redundant Internal Coordinates
                            (Angstroem and degrees)

        Definition                    Value    dE/dq     Step     New-Value  comp.(TS mode)
    ----------------------------------------------------------------------------
     1. B(C   2,N   1)                1.3694 -0.000783  0.0003    1.3698   
     2. B(C   2,O   0)                2.3939  0.000862 -0.0023    2.3916   
     3. B(C   3,C   2)                1.3717 -0.000200  0.0000    1.3717   
     4. B(C   4,N   1)                1.3690 -0.000957  0.0005    1.3694   
     5. B(C   5,C   4)                1.3692 -0.000235  0.0000    1.3693   
     6. B(C   5,C   3)                1.4232 -0.000853  0.0004    1.4236   
     7. B(C   6,C   2)                1.4954 -0.000780 -0.0002    1.4952   
     8. B(C   6,O   0)                1.2029 -0.000422 -0.0021    1.2008   
     9. B(H   7,N   1)                1.0056  0.000084 -0.0000    1.0056   
    10. B(H   8,C   3)                1.0804 -0.000121  0.0000    1.0804   
    11. B(H   9,C   4)                1.0785 -0.000829  0.0006    1.0790   
    12. B(H  10,C   5)                1.0793 -0.000597  0.0004    1.0796   
    13. B(H  11,O   0)                2.0053 -0.000257 -0.0048    2.0005   
    14. B(H  11,C   6)                1.1108  0.000517 -0.0022    1.1086   
    15. A(C   2,N   1,C   4)          109.53 -0.000359    0.01    109.54   
    16. A(C   2,N   1,H   7)          125.01  0.000086   -0.02    124.99   
    17. A(C   4,N   1,H   7)          125.37  0.000321   -0.05    125.31   
    18. A(N   1,C   2,C   6)          121.00 -0.000592    0.05    121.05   
    19. A(N   1,C   2,C   3)          108.00  0.000492   -0.02    107.97   
    20. A(C   3,C   2,C   6)          130.51 -0.000021    0.06    130.57   
    21. A(C   5,C   3,H   8)          127.17  0.000267   -0.02    127.15   
    22. A(C   2,C   3,C   5)          107.12 -0.000422    0.02    107.14   
    23. A(C   2,C   3,H   8)          125.71  0.000157   -0.00    125.71   
    24. A(C   5,C   4,H   9)          131.10  0.000006    0.01    131.11   
    25. A(N   1,C   4,H   9)          120.95 -0.000280    0.01    120.96   
    26. A(N   1,C   4,C   5)          107.95  0.000267   -0.01    107.93   
    27. A(C   3,C   5,H  10)          126.64 -0.000158    0.03    126.67   
    28. A(C   3,C   5,C   4)          107.41  0.000029   -0.00    107.41   
    29. A(C   4,C   5,H  10)          125.95  0.000124   -0.02    125.93   
    30. A(C   2,C   6,H  11)          115.21 -0.001360    0.14    115.35   
    31. A(O   0,C   6,H  11)          120.10 -0.000302   -0.10    119.99   
    32. A(O   0,C   6,C   2)          124.69  0.001657   -0.03    124.66   
    33. D(C   3,C   2,N   1,C   4)      0.61 -0.000724    0.64      1.25   
    34. D(C   3,C   2,N   1,H   7)    177.11  0.000107   -0.42    176.69   
    35. D(C   6,C   2,N   1,C   4)    173.32 -0.001593    1.28    174.60   
    36. D(C   6,C   2,N   1,H   7)    -10.18 -0.000762    0.22     -9.96   
    37. D(H   8,C   3,C   2,N   1)    179.78  0.000120   -0.18    179.60   
    38. D(C   5,C   3,C   2,N   1)     -0.44  0.000797   -0.73     -1.17   
    39. D(C   5,C   3,C   2,C   6)   -172.22  0.001827   -1.46   -173.67   
    40. D(H   8,C   3,C   2,C   6)      8.01  0.001151   -0.91      7.10   
    41. D(H   9,C   4,N   1,H   7)      3.73  0.000033    0.11      3.84   
    42. D(H   9,C   4,N   1,C   2)   -179.78  0.000858   -0.96   -180.74   
    43. D(C   5,C   4,N   1,H   7)   -177.02 -0.000475    0.78   -176.23   
    44. D(C   5,C   4,N   1,C   2)     -0.53  0.000349   -0.28     -0.81   
    45. D(H  10,C   5,C   3,C   2)    179.19 -0.000928    0.85    180.05   
    46. D(C   4,C   5,C   3,H   8)    179.89  0.000100    0.00    179.89   
    47. D(C   4,C   5,C   3,C   2)      0.12 -0.000589    0.56      0.68   
    48. D(H  10,C   5,C   4,H   9)      0.32 -0.000091    0.30      0.62   
    49. D(H  10,C   5,C   4,N   1)   -178.83  0.000491   -0.47   -179.30   
    50. D(C   3,C   5,C   4,H   9)    179.40 -0.000430    0.60    180.00   
    51. D(C   3,C   5,C   4,N   1)      0.25  0.000152   -0.17      0.08   
    52. D(H  10,C   5,C   3,H   8)     -1.03 -0.000239    0.30     -0.74   
    53. D(H  11,C   6,C   2,C   3)     81.32  0.000488    2.26     83.57          0.45
    54. D(H  11,C   6,C   2,N   1)    -89.55  0.001552    1.46    -88.10          0.50
    55. D(O   0,C   6,C   2,C   3)    -99.50  0.000118    3.19    -96.32          0.47
    56. D(O   0,C   6,C   2,N   1)     89.62  0.001182    2.39     92.01          0.52
    ----------------------------------------------------------------------------

         *************************************************************
         *                GEOMETRY OPTIMIZATION CYCLE   2            *
         *************************************************************
---------------------------------
CARTESIAN COORDINATES (ANGSTROEM)
---------------------------------
  O      2.720537   -0.773230   -0.902588
  N     -0.478393   -0.941001   -0.199961
  C      0.592536   -0.101717   -0.042034
  C      0.110186    1.165440    0.165786
  C     -1.640285   -0.220256   -0.123192
  C     -1.310031    1.089025    0.103992
  C      1.986453   -0.636826    0.037885
  H     -0.415794   -1.921615   -0.413628
  H      0.709441    2.049174    0.330558
  H     -2.599921   -0.700644   -0.235525
  H     -2.005465    1.906066    0.224216
  H      2.330737   -0.914416    1.054490

----------------------------
CARTESIAN COORDINATES (A.U.)
----------------------------
  NO LB      ZA    FRAG     MASS         X           Y           Z
   0 O     8.0000    0    15.999    5.141069   -1.461193   -1.705643
   1 N     7.0000    0    14.007   -0.904032   -1.778234   -0.377871
   2 C     6.0000    0    12.011    1.119730   -0.192217   -0.079432
   3 C     6.0000    0    12.011    0.208221    2.202363    0.313289
   4 C     6.0000    0    12.011   -3.099690   -0.416223   -0.232798
   5 C     6.0000    0    12.011   -2.475600    2.057958    0.196517
   6 C     6.0000    0    12.011    3.753853   -1.203427    0.071592
   7 H     1.0000    0     1.008   -0.785737   -3.631326   -0.781643
   8 H     1.0000    0     1.008    1.340649    3.872378    0.624663
   9 H     1.0000    0     1.008   -4.913139   -1.324026   -0.445077
  10 H     1.0000    0     1.008   -3.789780    3.601942    0.423707
  11 H     1.0000    0     1.008    4.404455   -1.727995    1.992697

--------------------------------
INTERNAL COORDINATES (ANGSTROEM)
--------------------------------
 O      0   0   0     0.000000000000     0.00000000     0.00000000
 N      1   0   0     3.279479089973     0.00000000     0.00000000
 C      2   1   0     1.369754046889    39.71069312     0.00000000
 C      3   2   1     1.371691775954   107.97296835   158.53579584
 C      2   1   3     1.369437810456   144.35971996    38.64130418
 C      5   2   1     1.369268276793   107.93357735   334.14121492
 C      1   2   3     1.200821786058    40.68635777    50.43816064
 H      2   1   3     1.005572562650    86.76912777   194.81098217
 H      4   3   2     1.080389577082   125.71124402   179.60154499
 H      5   2   1     1.079024021459   120.95852408   154.21191500
 H      6   5   2     1.079647377682   125.92531256   180.70145691
 H      7   1   2     1.108635450974   119.99278846   146.84740660

---------------------------
INTERNAL COORDINATES (A.U.)
---------------------------
 O      0   0   0     0.000000000000     0.00000000     0.00000000
 N      1   0   0     6.197317341971     0.00000000     0.00000000
 C      2   1   0     2.588460019450    39.71069312     0.00000000
 C      3   2   1     2.592121796705   107.97296835   158.53579584
 C      2   1   3     2.587862419198   144.35971996    38.64130418
 C      5   2   1     2.587542047005   107.93357735   334.14121492
 C      1   2   3     2.269224311295    40.68635777    50.43816064
 H      2   1   3     1.900256751194    86.76912777   194.81098217
 H      4   3   2     2.041640418628   125.71124402   179.60154499
 H      5   2   1     2.039059892481   120.95852408   154.21191500
 H      6   5   2     2.040237865025   125.92531256   180.70145691
 H      7   1   2     2.095017384698   119.99278846   146.84740660



           ************************************************************
           *        Program running with 40 parallel MPI-processes    *
           *              working on a common directory               *
           ************************************************************
------------------------------------------------------------------------------
                   ___                                                        
                  /   \      - P O W E R E D   B Y -                         
                 /     \                                                     
                 |  |  |   _    _      __       _____    __    __             
                 |  |  |  | |  | |    /  \     |  _  \  |  |  /  |          
                  \  \/   | |  | |   /    \    | | | |  |  | /  /          
                 / \  \   | |__| |  /  /\  \   | |_| |  |  |/  /          
                |  |  |   |  __  | /  /__\  \  |    /   |      \           
                |  |  |   | |  | | |   __   |  |    \   |  |\   \          
                \     /   | |  | | |  |  |  |  | |\  \  |  | \   \       
                 \___/    |_|  |_| |__|  |__|  |_| \__\ |__|  \__/        
                                                                              
                      - O R C A' S   B I G   F R I E N D -                    
                                      &                                       
                       - I N T E G R A L  F E E D E R -                       
                                                                              
 v1 FN, 2020, v2 2021                                                         
------------------------------------------------------------------------------


Reading SHARK input file /scratch/c.c21095646/orca.56479612/orca.SHARKINP.tmp ... ok
----------------------
SHARK INTEGRAL PACKAGE
----------------------

[...]
  2   -323.50765625  -0.0000005775  0.000041  0.000103  0.000109  0.000003
  3   -323.50765632  -0.0000000706  0.000017  0.000030  0.000030  0.000001
  4   -323.50765632   0.0000000010  0.000018  0.000015  0.000016  0.000000
                  ***Gradient check signals convergence***
              ***Rediagonalizing the Fockian in SOSCF/NRSCF***

               *****************************************************
               *                     SUCCESS                       *
               *           SCF CONVERGED AFTER   5 CYCLES          *
               *****************************************************

Old exchange energy                            =    -13.639508260 Eh
New exchange energy                            =    -13.639498513 Eh
Exchange energy change after final integration =      0.000009747 Eh
Total energy after final integration           =   -323.507646582 Eh
Final COS-X integration done in                =     1.012 sec

----------------
TOTAL SCF ENERGY
----------------

Total Energy       :         -323.50764658 Eh           -8803.09060 eV

Components:
Nuclear Repulsion  :          269.68621011 Eh            7338.53486 eV
Electronic Energy  :         -593.19385669 Eh          -16141.62546 eV
One Electron Energy:         -971.77483677 Eh          -26443.33766 eV
Two Electron Energy:          378.58098008 Eh           10301.71220 eV
Max COSX asymmetry :            0.00000061 Eh               0.00002 eV

Virial components:
Potential Energy   :         -645.83979142 Eh          -17574.19418 eV
Kinetic Energy     :          322.33214484 Eh            8771.10358 eV
Virial Ratio       :            2.00364686


DFT components:
N(Alpha)           :       25.000017556387 electrons
N(Beta)            :       25.000017556387 electrons
N(Total)           :       50.000035112774 electrons
E(X)               :      -28.896468676071 Eh       
E(C)               :       -2.097803293339 Eh       
NL Energy, E(C,NL) :        0.193799413044 Eh       
E(XC)              :      -30.800472556366 Eh       
DFET-embed. en.    :        0.000000000000 Eh       

---------------
SCF CONVERGENCE
---------------

  Last Energy change         ...   -5.8108e-09  Tolerance :   1.0000e-08
  Last MAX-Density change    ...    6.6613e-16  Tolerance :   1.0000e-07
  Last RMS-Density change    ...    1.6307e-17  Tolerance :   5.0000e-09
  Last Orbital Gradient      ...    1.3177e-06  Tolerance :   1.0000e-05
  Last Orbital Rotation      ...    2.3632e-06  Tolerance :   1.0000e-05

             **** THE GBW FILE WAS UPDATED (/scratch/c.c21095646/orca.56479612/orca.gbw) ****
             **** DENSITY /scratch/c.c21095646/orca.56479612/orca.scfp WAS UPDATED ****
             **** ENERGY FILE WAS UPDATED (/scratch/c.c21095646/orca.56479612/orca.en.tmp) ****
             **** THE GBW FILE WAS UPDATED (/scratch/c.c21095646/orca.56479612/orca.gbw) ****
             **** DENSITY /scratch/c.c21095646/orca.56479612/orca.scfp WAS UPDATED ****
----------------
ORBITAL ENERGIES
----------------

  NO   OCC          E(Eh)            E(eV) 
   0   2.0000     -19.228408      -523.2316 
   1   2.0000     -14.468509      -393.7082 
   2   2.0000     -10.376357      -282.3550 
   3   2.0000     -10.305310      -280.4217 
   4   2.0000     -10.298164      -280.2273 
   5   2.0000     -10.264755      -279.3182 
   6   2.0000     -10.261002      -279.2161 
   7   2.0000      -1.197335       -32.5811 
   8   2.0000      -1.127005       -30.6674 
   9   2.0000      -0.918173       -24.9848 
  10   2.0000      -0.885149       -24.0861 
  11   2.0000      -0.763926       -20.7875 
  12   2.0000      -0.720042       -19.5933 
  13   2.0000      -0.700057       -19.0495 
  14   2.0000      -0.655563       -17.8388 
  15   2.0000      -0.587999       -16.0003 
  16   2.0000      -0.558563       -15.1993 
  17   2.0000      -0.554189       -15.0802 
  18   2.0000      -0.534241       -14.5374 
  19   2.0000      -0.526854       -14.3364 
  20   2.0000      -0.501879       -13.6568 
  21   2.0000      -0.487174       -13.2567 
  22   2.0000      -0.378612       -10.3026 
  23   2.0000      -0.356914        -9.7121 
  24   2.0000      -0.320575        -8.7233 
  25   0.0000       0.041198         1.1210 
  26   0.0000       0.101123         2.7517 
  27   0.0000       0.109070         2.9679 
  28   0.0000       0.141061         3.8385 
  29   0.0000       0.153971         4.1898 
  30   0.0000       0.163746         4.4558 
  31   0.0000       0.168352         4.5811 
  32   0.0000       0.182106         4.9554 
  33   0.0000       0.209225         5.6933 
  34   0.0000       0.217352         5.9145 
  35   0.0000       0.251867         6.8536 
  36   0.0000       0.258491         7.0339 
  37   0.0000       0.270195         7.3524 
  38   0.0000       0.298639         8.1264 
  39   0.0000       0.322109         8.7650 
  40   0.0000       0.332494         9.0476 
  41   0.0000       0.348504         9.4833 
  42   0.0000       0.351249         9.5580 
  43   0.0000       0.361106         9.8262 
  44   0.0000       0.381429        10.3792 
  45   0.0000       0.385753        10.4969 
  46   0.0000       0.408960        11.1284 
  47   0.0000       0.424712        11.5570 
  48   0.0000       0.439567        11.9612 
  49   0.0000       0.449224        12.2240 
  50   0.0000       0.465218        12.6592 
  51   0.0000       0.485544        13.2123 
  52   0.0000       0.497594        13.5402 
  53   0.0000       0.504969        13.7409 
  54   0.0000       0.516551        14.0561 
  55   0.0000       0.518701        14.1146 
  56   0.0000       0.528723        14.3873 
  57   0.0000       0.554320        15.0838 
  58   0.0000       0.557018        15.1572 
  59   0.0000       0.570552        15.5255 
  60   0.0000       0.596842        16.2409 
  61   0.0000       0.618440        16.8286 
  62   0.0000       0.625145        17.0111 
  63   0.0000       0.640659        17.4332 
  64   0.0000       0.675764        18.3885 
  65   0.0000       0.701954        19.1011 
  66   0.0000       0.718024        19.5384 
  67   0.0000       0.725223        19.7343 
  68   0.0000       0.738402        20.0929 
  69   0.0000       0.750799        20.4303 
  70   0.0000       0.759595        20.6696 
  71   0.0000       0.774588        21.0776 
  72   0.0000       0.837688        22.7947 
  73   0.0000       0.846935        23.0463 
  74   0.0000       0.867844        23.6152 
  75   0.0000       0.936464        25.4825 
  76   0.0000       0.950511        25.8647 
  77   0.0000       0.985967        26.8295 
  78   0.0000       1.001644        27.2561 
  79   0.0000       1.035217        28.1697 
  80   0.0000       1.049776        28.5659 
  81   0.0000       1.061697        28.8903 
  82   0.0000       1.083101        29.4727 
  83   0.0000       1.099405        29.9163 
  84   0.0000       1.126512        30.6539 
  85   0.0000       1.163797        31.6685 
  86   0.0000       1.207764        32.8649 
  87   0.0000       1.217392        33.1269 
  88   0.0000       1.237462        33.6731 
  89   0.0000       1.288664        35.0663 
  90   0.0000       1.307746        35.5856 
  91   0.0000       1.321965        35.9725 
  92   0.0000       1.334504        36.3137 
  93   0.0000       1.348947        36.7067 
  94   0.0000       1.385923        37.7129 
  95   0.0000       1.402642        38.1678 
  96   0.0000       1.463840        39.8331 
  97   0.0000       1.489112        40.5208 
  98   0.0000       1.499975        40.8164 
  99   0.0000       1.533235        41.7215 
 100   0.0000       1.551890        42.2291 
 101   0.0000       1.558398        42.4062 
 102   0.0000       1.579247        42.9735 
 103   0.0000       1.602321        43.6014 
 104   0.0000       1.627607        44.2894 
 105   0.0000       1.636139        44.5216 
 106   0.0000       1.648452        44.8567 
 107   0.0000       1.691010        46.0147 
 108   0.0000       1.709810        46.5263 
 109   0.0000       1.727152        46.9982 
 110   0.0000       1.747487        47.5515 
 111   0.0000       1.757525        47.8247 
 112   0.0000       1.791090        48.7380 
 113   0.0000       1.810908        49.2773 
 114   0.0000       1.861052        50.6418 
 115   0.0000       1.906834        51.8876 
 116   0.0000       1.936155        52.6855 
 117   0.0000       1.994252        54.2663 
 118   0.0000       2.012580        54.7651 
 119   0.0000       2.036971        55.4288 
 120   0.0000       2.052918        55.8628 
 121   0.0000       2.060952        56.0814 
 122   0.0000       2.080263        56.6068 
 123   0.0000       2.119821        57.6833 
 124   0.0000       2.153599        58.6024 
 125   0.0000       2.177111        59.2422 
 126   0.0000       2.204201        59.9793 
 127   0.0000       2.227035        60.6007 
 128   0.0000       2.266892        61.6853 
 129   0.0000       2.305425        62.7338 
 130   0.0000       2.330985        63.4293 
 131   0.0000       2.350539        63.9614 
 132   0.0000       2.385533        64.9137 
 133   0.0000       2.393508        65.1307 
 134   0.0000       2.430417        66.1350 
 135   0.0000       2.474102        67.3237 
 136   0.0000       2.515845        68.4596 
 137   0.0000       2.539540        69.1044 
 138   0.0000       2.616826        71.2075 
 139   0.0000       2.677301        72.8531 
 140   0.0000       2.695756        73.3553 
 141   0.0000       2.698781        73.4376 
 142   0.0000       2.717282        73.9410 
 143   0.0000       2.721342        74.0515 
 144   0.0000       2.754315        74.9487 
 145   0.0000       2.764927        75.2375 
 146   0.0000       2.777177        75.5708 
 147   0.0000       2.819118        76.7121 
 148   0.0000       2.838850        77.2490 
 149   0.0000       2.846836        77.4663 
 150   0.0000       2.852681        77.6254 
 151   0.0000       2.874843        78.2285 
 152   0.0000       2.937754        79.9403 
 153   0.0000       2.958679        80.5098 
 154   0.0000       2.982487        81.1576 
 155   0.0000       3.005488        81.7835 
 156   0.0000       3.033979        82.5588 
 157   0.0000       3.063219        83.3544 
 158   0.0000       3.074426        83.6594 
 159   0.0000       3.084249        83.9267 
 160   0.0000       3.114488        84.7495 
 161   0.0000       3.131289        85.2067 
 162   0.0000       3.157739        85.9264 
 163   0.0000       3.165318        86.1327 
 164   0.0000       3.174191        86.3741 
 165   0.0000       3.188904        86.7745 
 166   0.0000       3.210251        87.3554 
 167   0.0000       3.224308        87.7379 
 168   0.0000       3.231717        87.9395 
 169   0.0000       3.260651        88.7268 
 170   0.0000       3.307003        89.9881 
 171   0.0000       3.315540        90.2204 
 172   0.0000       3.322987        90.4231 
 173   0.0000       3.324867        90.4742 
 174   0.0000       3.387703        92.1841 
 175   0.0000       3.412005        92.8454 
 176   0.0000       3.425947        93.2248 
 177   0.0000       3.449770        93.8730 
 178   0.0000       3.454982        94.0148 
 179   0.0000       3.485615        94.8484 
 180   0.0000       3.539327        96.3100 
 181   0.0000       3.558645        96.8357 
 182   0.0000       3.571311        97.1803 
 183   0.0000       3.595733        97.8449 
 184   0.0000       3.617863        98.4471 
 185   0.0000       3.664623        99.7195 
 186   0.0000       3.698263       100.6349 
 187   0.0000       3.718536       101.1865 
 188   0.0000       3.761046       102.3433 
 189   0.0000       3.777538       102.7920 
 190   0.0000       3.828169       104.1698 
 191   0.0000       3.850093       104.7663 
 192   0.0000       3.915880       106.5565 
 193   0.0000       3.975266       108.1725 
 194   0.0000       4.052041       110.2616 
 195   0.0000       4.071370       110.7876 
 196   0.0000       4.097672       111.5033 
 197   0.0000       4.143739       112.7569 
 198   0.0000       4.220772       114.8530 
 199   0.0000       4.287015       116.6556 
 200   0.0000       4.309542       117.2686 
 201   0.0000       4.328486       117.7841 
 202   0.0000       4.367934       118.8575 
 203   0.0000       4.414711       120.1304 
 204   0.0000       4.469516       121.6217 
 205   0.0000       4.491475       122.2192 
 206   0.0000       4.514640       122.8496 
 207   0.0000       4.602463       125.2394 
 208   0.0000       4.680718       127.3688 
 209   0.0000       4.769063       129.7728 
 210   0.0000       4.808166       130.8369 
 211   0.0000       4.857936       132.1912 
 212   0.0000       4.867760       132.4585 
 213   0.0000       4.896594       133.2431 
 214   0.0000       4.922720       133.9540 
 215   0.0000       5.006304       136.2284 
 216   0.0000       5.046356       137.3183 
 217   0.0000       5.115730       139.2061 
 218   0.0000       5.128291       139.5479 
 219   0.0000       5.167657       140.6191 
 220   0.0000       5.265334       143.2770 
 221   0.0000       5.284534       143.7995 
 222   0.0000       5.319419       144.7488 
 223   0.0000       5.323691       144.8650 
 224   0.0000       5.401283       146.9764 
 225   0.0000       5.560319       151.3040 
 226   0.0000       5.631145       153.2313 
 227   0.0000       5.669033       154.2622 
 228   0.0000       5.782173       157.3409 
 229   0.0000       5.820216       158.3761 
 230   0.0000       5.991463       163.0360 
 231   0.0000       6.079726       165.4378 
 232   0.0000       6.207535       168.9156 
 233   0.0000       6.420361       174.7069 
 234   0.0000       6.458647       175.7487 
 235   0.0000       6.498766       176.8404 
 236   0.0000       6.576174       178.9468 
 237   0.0000       6.881538       187.2562 
 238   0.0000       7.032567       191.3659 
 239   0.0000       7.158934       194.8045 
 240   0.0000      22.353458       608.2685 
 241   0.0000      22.697796       617.6384 
 242   0.0000      22.853041       621.8629 
 243   0.0000      22.908106       623.3612 
 244   0.0000      23.240520       632.4067 
 245   0.0000      32.380681       881.1231 
 246   0.0000      43.816172      1192.2987 
-------
TIMINGS
-------

Total SCF time: 0 days 0 hours 0 min 10 sec 

Total time                  ....      10.986 sec
Sum of individual times     ....      10.179 sec  ( 92.7%)

Fock matrix formation       ....       8.985 sec  ( 81.8%)
  Split-RI-J                ....       1.490 sec  ( 16.6% of F)
  Chain of spheres X        ....       3.785 sec  ( 42.1% of F)
  XC integration            ....       2.207 sec  ( 24.6% of F)
    Basis function eval.    ....       0.099 sec  (  4.5% of XC)
    Density eval.           ....       0.065 sec  (  2.9% of XC)
    XC-Functional eval.     ....       0.488 sec  ( 22.1% of XC)
    XC-Potential eval.      ....       0.071 sec  (  3.2% of XC)
Diagonalization             ....       0.038 sec  (  0.3%)
Density matrix formation    ....       0.010 sec  (  0.1%)
Population analysis         ....       0.000 sec  (  0.0%)
Initial guess               ....       0.021 sec  (  0.2%)
Orbital Transformation      ....       0.000 sec  (  0.0%)
Orbital Orthonormalization  ....       0.012 sec  (  0.1%)
DIIS solution               ....       0.009 sec  (  0.1%)
SOSCF solution              ....       0.173 sec  (  1.6%)
Grid generation             ....       0.942 sec  (  8.6%)

Maximum memory used throughout the entire SCF-calculation: 70.5 MB

-------------------------   --------------------
FINAL SINGLE POINT ENERGY      -323.507646582470
-------------------------   --------------------

                                *** OPTIMIZATION RUN DONE ***


                    ***********************HURRAY************************
                    ***        THE TS OPTIMIZATION HAS CONVERGED      ***
                    *****************************************************



---------------------------------------------------------------
                      PATH SUMMARY FOR NEB-TS             
---------------------------------------------------------------
All forces in Eh/Bohr. Global forces for TS.

Image     E(Eh)   dE(kcal/mol)  max(|Fp|)  RMS(Fp)
  0    -323.52399     0.00       0.00059   0.00013
  1    -323.51870     3.32       0.00075   0.00032
  2    -323.51315     6.80       0.00117   0.00051
  3    -323.50949     9.10       0.00110   0.00045
  4    -323.50757    10.31       0.00195   0.00068
  5    -323.50743    10.40       0.00168   0.00057 <= CI
 TS    -323.50765    10.26       0.00033   0.00012 <= TS
  6    -323.50914     9.32       0.00172   0.00063
  7    -323.51291     6.96       0.00198   0.00074
  8    -323.51987     2.59       0.00217   0.00078
  9    -323.53025    -3.93       0.00032   0.00008
----------
STATISTICS
----------

For the individual parts of the NEB, NEB-CI or NEB-TS run:

Number of iterations:
     NEB                               ... 20  69.0%
     TS optimization                   ... 9  31.0%
Number of SCF / gradient calculations:
     NEB                               ... 194  95.6%
     TS optimization                   ... 9  4.4%

----------
 TIMINGS
----------

For the individual parts of the NEB, NEB-CI or NEB-TS run:

Total                                  ...    15092.283 sec
NEB                                    ...    14702.913 sec  97.4%
TS Optimization                        ...      389.371 sec  2.6%


                            ***************************************
                            *     ORCA property calculations      *
                            ***************************************

                                    ---------------------
                                    Active property flags
                                    ---------------------
   (+) Dipole Moment


------------------------------------------------------------------------------
                       ORCA ELECTRIC PROPERTIES CALCULATION
------------------------------------------------------------------------------

Dipole Moment Calculation                       ... on
Quadrupole Moment Calculation                   ... off
Polarizability Calculation                      ... off
GBWName                                         ... /scratch/c.c21095646/orca.56479612/orca.gbw
Electron density file                           ... /scratch/c.c21095646/orca.56479612/orca.scfp
The origin for moment calculation is the CENTER OF MASS  = ( 0.620519, -0.172887 -0.279718)

-------------
DIPOLE MOMENT
-------------
                                X             Y             Z
Electronic contribution:      2.59063      -1.32479      -0.96087
Nuclear contribution   :     -3.33821       0.75723       1.53747
                        -----------------------------------------
Total Dipole Moment    :     -0.74758      -0.56756       0.57660
                        -----------------------------------------
Magnitude (a.u.)       :      1.10157
Magnitude (Debye)      :      2.79998



--------------------
Rotational spectrum 
--------------------
 
Rotational constants in cm-1:     0.261488     0.065109     0.055121 
Rotational constants in MHz :  7839.201770  1951.917325  1652.498142 

 Dipole components along the rotational axes: 
x,y,z [a.u.] :    -0.632672    -0.665787    -0.608209 
x,y,z [Debye]:    -1.608123    -1.692296    -1.545944 

 

Timings for individual modules:

Sum of individual times         ...    15078.293 sec (= 251.305 min)
GTO integral calculation        ...       69.936 sec (=   1.166 min)   0.5 %
SCF iterations                  ...      228.530 sec (=   3.809 min)   1.5 %
SCF Gradient evaluation         ...       76.494 sec (=   1.275 min)   0.5 %
Geometry relaxation             ...        0.420 sec (=   0.007 min)   0.0 %
NEB Iterations                  ...    14702.913 sec (= 245.049 min)  97.5 %
                             ****ORCA TERMINATED NORMALLY****
TOTAL RUN TIME: 0 days 4 hours 11 minutes 52 seconds 565 msec
