   5   5   0   0
  0.5190328E+02  0.6378545E-09  0.6378545E-09  0.6378545E-09  0.5000000E-15
  1.000000000000000E-004
  CAR 
 unknown system                          
     13.14574697    -22.25479468  301      1.34741020      1.00000000
    -22.255  0.0000E+00  0.0000E+00  0.0000E+00  0.0000E+00
    -22.137  0.0000E+00  0.0000E+00  0.0000E+00  0.0000E+00
    -22.019  0.0000E+00  0.0000E+00  0.0000E+00  0.0000E+00
    -21.901  0.0000E+00  0.0000E+00  0.0000E+00  0.0000E+00
    -21.783  0.0000E+00  0.0000E+00  0.0000E+00  0.0000E+00
    -21.665  0.0000E+00  0.0000E+00  0.0000E+00  0.0000E+00
    -21.547  0.0000E+00  0.0000E+00  0.0000E+00  0.0000E+00
    -21.429  0.9409E-15  0.9409E-15  0.1110E-15  0.1110E-15
    -21.311  0.6943E-12  0.6943E-12  0.8205E-13  0.8205E-13
    -21.193  0.2789E-09  0.2789E-09  0.3299E-10  0.3299E-10
    -21.075  0.5654E-07  0.5654E-07  0.6705E-08  0.6705E-08
    -20.957  0.5803E-05  0.5803E-05  0.6915E-06  0.6915E-06
    -20.839  0.3024E-03  0.3024E-03  0.3638E-04  0.3638E-04
    -20.721  0.8034E-02  0.8034E-02  0.9844E-03  0.9844E-03
    -20.603  0.1092E+00  0.1092E+00  0.1387E-01  0.1387E-01
    -20.485  0.7631E+00  0.7631E+00  0.1039E+00  0.1039E+00
    -20.367  0.2751E+01  0.2751E+01  0.4285E+00  0.4285E+00
    -20.249  0.5131E+01  0.5131E+01  0.1034E+01  0.1034E+01
    -20.131  0.4962E+01  0.4962E+01  0.1620E+01  0.1620E+01
    -20.013  0.2487E+01  0.2487E+01  0.1913E+01  0.1913E+01
    -19.895  0.6449E+00  0.6449E+00  0.1989E+01  0.1989E+01
    -19.777  0.8625E-01  0.8625E-01  0.1999E+01  0.1999E+01
    -19.659  0.5925E-02  0.5925E-02  0.2000E+01  0.2000E+01
    -19.541  0.2083E-03  0.2083E-03  0.2000E+01  0.2000E+01
    -19.423  0.3729E-05  0.3729E-05  0.2000E+01  0.2000E+01
    -19.305  0.3390E-07  0.3390E-07  0.2000E+01  0.2000E+01
    -19.187  0.1559E-09  0.1559E-09  0.2000E+01  0.2000E+01
    -19.069  0.3613E-12  0.3613E-12  0.2000E+01  0.2000E+01
    -18.951  0.0000E+00  0.0000E+00  0.2000E+01  0.2000E+01
    -18.833  0.0000E+00  0.0000E+00  0.2000E+01  0.2000E+01
    -18.715  0.0000E+00  0.0000E+00  0.2000E+01  0.2000E+01
    -18.597  0.0000E+00  0.0000E+00  0.2000E+01  0.2000E+01
    -18.479  0.0000E+00  0.0000E+00  0.2000E+01  0.2000E+01
    -18.361  0.0000E+00  0.0000E+00  0.2000E+01  0.2000E+01
    -18.243  0.0000E+00  0.0000E+00  0.2000E+01  0.2000E+01
    -18.125  0.0000E+00  0.0000E+00  0.2000E+01  0.2000E+01
    -18.007  0.0000E+00  0.0000E+00  0.2000E+01  0.2000E+01
    -17.889  0.0000E+00  0.0000E+00  0.2000E+01  0.2000E+01
    -17.771  0.0000E+00  0.0000E+00  0.2000E+01  0.2000E+01
    -17.653  0.0000E+00  0.0000E+00  0.2000E+01  0.2000E+01
    -17.535  0.0000E+00  0.0000E+00  0.2000E+01  0.2000E+01
    -17.417  0.0000E+00  0.0000E+00  0.2000E+01  0.2000E+01
    -17.299  0.0000E+00  0.0000E+00  0.2000E+01  0.2000E+01
    -17.181  0.0000E+00  0.0000E+00  0.2000E+01  0.2000E+01
    -17.063  0.0000E+00  0.0000E+00  0.2000E+01  0.2000E+01
    -16.945  0.0000E+00  0.0000E+00  0.2000E+01  0.2000E+01
    -16.827  0.0000E+00  0.0000E+00  0.2000E+01  0.2000E+01
    -16.709  0.0000E+00  0.0000E+00  0.2000E+01  0.2000E+01
    -16.591  0.0000E+00  0.0000E+00  0.2000E+01  0.2000E+01
    -16.473  0.0000E+00  0.0000E+00  0.2000E+01  0.2000E+01
    -16.355  0.0000E+00  0.0000E+00  0.2000E+01  0.2000E+01
    -16.237  0.0000E+00  0.0000E+00  0.2000E+01  0.2000E+01
    -16.119  0.0000E+00  0.0000E+00  0.2000E+01  0.2000E+01
    -16.001  0.0000E+00  0.0000E+00  0.2000E+01  0.2000E+01
    -15.883  0.7150E-13  0.7150E-13  0.2000E+01  0.2000E+01
    -15.765  0.4037E-10  0.4037E-10  0.2000E+01  0.2000E+01
    -15.647  0.1164E-07  0.1164E-07  0.2000E+01  0.2000E+01
    -15.529  0.1714E-05  0.1714E-05  0.2000E+01  0.2000E+01
    -15.411  0.1294E-03  0.1294E-03  0.2000E+01  0.2000E+01
    -15.293  0.5039E-02  0.5039E-02  0.2001E+01  0.2001E+01
    -15.175  0.1018E+00  0.1018E+00  0.2013E+01  0.2013E+01
    -15.057  0.1074E+01  0.1074E+01  0.2139E+01  0.2139E+01
    -14.939  0.5943E+01  0.5943E+01  0.2841E+01  0.2841E+01
    -14.821  0.1734E+02  0.1734E+02  0.4887E+01  0.4887E+01
    -14.703  0.2673E+02  0.2673E+02  0.8041E+01  0.8041E+01
    -14.585  0.2179E+02  0.2179E+02  0.1061E+02  0.1061E+02
    -14.467  0.9372E+01  0.9372E+01  0.1172E+02  0.1172E+02
    -14.349  0.2119E+01  0.2119E+01  0.1197E+02  0.1197E+02
    -14.231  0.2505E+00  0.2505E+00  0.1200E+02  0.1200E+02
    -14.113  0.1539E-01  0.1539E-01  0.1200E+02  0.1200E+02
    -13.995  0.4886E-03  0.4886E-03  0.1200E+02  0.1200E+02
    -13.877  0.7963E-05  0.7963E-05  0.1200E+02  0.1200E+02
    -13.759  0.6630E-07  0.6630E-07  0.1200E+02  0.1200E+02
    -13.641  0.2807E-09  0.2807E-09  0.1200E+02  0.1200E+02
    -13.523  0.6040E-12  0.6040E-12  0.1200E+02  0.1200E+02
    -13.405  0.0000E+00  0.0000E+00  0.1200E+02  0.1200E+02
    -13.287  0.0000E+00  0.0000E+00  0.1200E+02  0.1200E+02
    -13.169  0.0000E+00  0.0000E+00  0.1200E+02  0.1200E+02
    -13.051  0.0000E+00  0.0000E+00  0.1200E+02  0.1200E+02
    -12.933  0.0000E+00  0.0000E+00  0.1200E+02  0.1200E+02
    -12.815  0.0000E+00  0.0000E+00  0.1200E+02  0.1200E+02
    -12.697  0.0000E+00  0.0000E+00  0.1200E+02  0.1200E+02
    -12.579  0.0000E+00  0.0000E+00  0.1200E+02  0.1200E+02
    -12.461  0.0000E+00  0.0000E+00  0.1200E+02  0.1200E+02
    -12.343  0.0000E+00  0.0000E+00  0.1200E+02  0.1200E+02
    -12.225  0.0000E+00  0.0000E+00  0.1200E+02  0.1200E+02
    -12.107  0.0000E+00  0.0000E+00  0.1200E+02  0.1200E+02
    -11.989  0.0000E+00  0.0000E+00  0.1200E+02  0.1200E+02
    -11.871  0.0000E+00  0.0000E+00  0.1200E+02  0.1200E+02
    -11.753  0.0000E+00  0.0000E+00  0.1200E+02  0.1200E+02
    -11.635  0.1007E-12  0.1007E-12  0.1200E+02  0.1200E+02
    -11.517  0.4948E-10  0.4948E-10  0.1200E+02  0.1200E+02
    -11.399  0.1231E-07  0.1231E-07  0.1200E+02  0.1200E+02
    -11.281  0.1550E-05  0.1550E-05  0.1200E+02  0.1200E+02
    -11.163  0.9899E-04  0.9899E-04  0.1200E+02  0.1200E+02
    -11.045  0.3218E-02  0.3218E-02  0.1200E+02  0.1200E+02
    -10.927  0.5349E-01  0.5349E-01  0.1201E+02  0.1201E+02
    -10.809  0.4562E+00  0.4562E+00  0.1206E+02  0.1206E+02
    -10.691  0.2006E+01  0.2006E+01  0.1230E+02  0.1230E+02
    -10.573  0.4559E+01  0.4559E+01  0.1284E+02  0.1284E+02
    -10.455  0.5371E+01  0.5371E+01  0.1347E+02  0.1347E+02
    -10.337  0.3288E+01  0.3288E+01  0.1386E+02  0.1386E+02
    -10.219  0.1162E+01  0.1162E+01  0.1399E+02  0.1399E+02
    -10.101  0.1194E+01  0.1194E+01  0.1413E+02  0.1413E+02
     -9.983  0.4330E+01  0.4330E+01  0.1465E+02  0.1465E+02
     -9.865  0.9402E+01  0.9402E+01  0.1576E+02  0.1576E+02
     -9.747  0.1061E+02  0.1061E+02  0.1701E+02  0.1701E+02
     -9.629  0.6210E+01  0.6210E+01  0.1774E+02  0.1774E+02
     -9.511  0.1881E+01  0.1881E+01  0.1796E+02  0.1796E+02
     -9.393  0.2941E+00  0.2941E+00  0.1800E+02  0.1800E+02
     -9.275  0.2365E-01  0.2365E-01  0.1800E+02  0.1800E+02
     -9.157  0.9737E-03  0.9737E-03  0.1800E+02  0.1800E+02
     -9.039  0.2044E-04  0.2044E-04  0.1800E+02  0.1800E+02
     -8.921  0.2181E-06  0.2181E-06  0.1800E+02  0.1800E+02
     -8.803  0.1178E-08  0.1178E-08  0.1800E+02  0.1800E+02
     -8.685  0.3218E-11  0.3218E-11  0.1800E+02  0.1800E+02
     -8.567  0.3763E-14  0.3763E-14  0.1800E+02  0.1800E+02
     -8.449  0.0000E+00  0.0000E+00  0.1800E+02  0.1800E+02
     -8.331  0.0000E+00  0.0000E+00  0.1800E+02  0.1800E+02
     -8.213  0.0000E+00  0.0000E+00  0.1800E+02  0.1800E+02
     -8.095  0.1109E-11  0.1109E-11  0.1800E+02  0.1800E+02
     -7.977  0.4766E-09  0.4766E-09  0.1800E+02  0.1800E+02
     -7.859  0.1034E-06  0.1034E-06  0.1800E+02  0.1800E+02
     -7.741  0.1135E-04  0.1135E-04  0.1800E+02  0.1800E+02
     -7.623  0.6323E-03  0.6323E-03  0.1800E+02  0.1800E+02
     -7.505  0.1795E-01  0.1795E-01  0.1800E+02  0.1800E+02
     -7.387  0.2607E+00  0.2607E+00  0.1803E+02  0.1803E+02
     -7.269  0.1945E+01  0.1945E+01  0.1826E+02  0.1826E+02
     -7.151  0.7486E+01  0.7486E+01  0.1915E+02  0.1915E+02
     -7.033  0.1490E+02  0.1490E+02  0.2090E+02  0.2090E+02
     -6.915  0.1538E+02  0.1538E+02  0.2272E+02  0.2272E+02
     -6.797  0.8227E+01  0.8227E+01  0.2369E+02  0.2369E+02
     -6.679  0.2277E+01  0.2277E+01  0.2396E+02  0.2396E+02
     -6.561  0.3252E+00  0.3252E+00  0.2400E+02  0.2400E+02
     -6.443  0.2387E-01  0.2387E-01  0.2400E+02  0.2400E+02
     -6.325  0.8967E-03  0.8967E-03  0.2400E+02  0.2400E+02
     -6.207  0.1717E-04  0.1717E-04  0.2400E+02  0.2400E+02
     -6.089  0.1669E-06  0.1669E-06  0.2400E+02  0.2400E+02
     -5.971  0.9653E-09  0.9653E-09  0.2400E+02  0.2400E+02
     -5.853  0.3156E-07  0.3156E-07  0.2400E+02  0.2400E+02
     -5.735  0.3505E-05  0.3505E-05  0.2400E+02  0.2400E+02
     -5.617  0.1976E-03  0.1976E-03  0.2400E+02  0.2400E+02
     -5.499  0.5678E-02  0.5678E-02  0.2400E+02  0.2400E+02
     -5.381  0.8343E-01  0.8343E-01  0.2401E+02  0.2401E+02
     -5.263  0.6297E+00  0.6297E+00  0.2408E+02  0.2408E+02
     -5.145  0.2451E+01  0.2451E+01  0.2437E+02  0.2437E+02
     -5.027  0.4936E+01  0.4936E+01  0.2496E+02  0.2496E+02
     -4.909  0.5152E+01  0.5152E+01  0.2556E+02  0.2556E+02
     -4.791  0.2788E+01  0.2788E+01  0.2589E+02  0.2589E+02
     -4.673  0.7807E+00  0.7807E+00  0.2599E+02  0.2599E+02
     -4.555  0.1128E+00  0.1128E+00  0.2600E+02  0.2600E+02
     -4.437  0.8375E-02  0.8375E-02  0.2600E+02  0.2600E+02
     -4.319  0.3183E-03  0.3183E-03  0.2600E+02  0.2600E+02
     -4.201  0.6166E-05  0.6166E-05  0.2600E+02  0.2600E+02
     -4.083  0.6066E-07  0.6066E-07  0.2600E+02  0.2600E+02
     -3.965  0.3021E-09  0.3021E-09  0.2600E+02  0.2600E+02
     -3.847  0.7602E-12  0.7602E-12  0.2600E+02  0.2600E+02
     -3.729  0.0000E+00  0.0000E+00  0.2600E+02  0.2600E+02
     -3.611  0.0000E+00  0.0000E+00  0.2600E+02  0.2600E+02
     -3.493  0.0000E+00  0.0000E+00  0.2600E+02  0.2600E+02
     -3.375  0.0000E+00  0.0000E+00  0.2600E+02  0.2600E+02
     -3.257  0.0000E+00  0.0000E+00  0.2600E+02  0.2600E+02
     -3.139  0.0000E+00  0.0000E+00  0.2600E+02  0.2600E+02
     -3.021  0.0000E+00  0.0000E+00  0.2600E+02  0.2600E+02
     -2.902  0.9597E-13  0.9597E-13  0.2600E+02  0.2600E+02
     -2.784  0.5274E-10  0.5274E-10  0.2600E+02  0.2600E+02
     -2.666  0.1479E-07  0.1479E-07  0.2600E+02  0.2600E+02
     -2.548  0.2097E-05  0.2097E-05  0.2600E+02  0.2600E+02
     -2.430  0.1508E-03  0.1508E-03  0.2600E+02  0.2600E+02
     -2.312  0.5514E-02  0.5514E-02  0.2600E+02  0.2600E+02
     -2.194  0.1030E+00  0.1030E+00  0.2601E+02  0.2601E+02
     -2.076  0.9871E+00  0.9871E+00  0.2613E+02  0.2613E+02
     -1.958  0.4871E+01  0.4871E+01  0.2670E+02  0.2670E+02
     -1.840  0.1242E+02  0.1242E+02  0.2817E+02  0.2817E+02
     -1.722  0.1642E+02  0.1642E+02  0.3011E+02  0.3011E+02
     -1.604  0.1125E+02  0.1125E+02  0.3143E+02  0.3143E+02
     -1.486  0.3990E+01  0.3990E+01  0.3191E+02  0.3191E+02
     -1.368  0.7313E+00  0.7313E+00  0.3199E+02  0.3199E+02
     -1.250  0.6899E-01  0.6899E-01  0.3200E+02  0.3200E+02
     -1.132  0.3336E-02  0.3336E-02  0.3200E+02  0.3200E+02
     -1.014  0.8235E-04  0.8235E-04  0.3200E+02  0.3200E+02
     -0.896  0.1034E-05  0.1034E-05  0.3200E+02  0.3200E+02
     -0.778  0.6578E-08  0.6578E-08  0.3200E+02  0.3200E+02
     -0.660  0.1125E-08  0.1125E-08  0.3200E+02  0.3200E+02
     -0.542  0.2168E-06  0.2168E-06  0.3200E+02  0.3200E+02
     -0.424  0.2159E-04  0.2159E-04  0.3200E+02  0.3200E+02
     -0.306  0.1097E-02  0.1097E-02  0.3200E+02  0.3200E+02
     -0.188  0.2861E-01  0.2861E-01  0.3200E+02  0.3200E+02
     -0.070  0.3878E+00  0.3878E+00  0.3205E+02  0.3205E+02
      0.048  0.2779E+01  0.2779E+01  0.3238E+02  0.3238E+02
      0.166  0.1081E+02  0.1081E+02  0.3365E+02  0.3365E+02
      0.284  0.2361E+02  0.2361E+02  0.3644E+02  0.3644E+02
      0.402  0.2986E+02  0.2986E+02  0.3996E+02  0.3996E+02
      0.520  0.2215E+02  0.2215E+02  0.4258E+02  0.4258E+02
      0.638  0.9485E+01  0.9485E+01  0.4369E+02  0.4369E+02
      0.756  0.2271E+01  0.2271E+01  0.4396E+02  0.4396E+02
      0.874  0.2940E+00  0.2940E+00  0.4400E+02  0.4400E+02
      0.992  0.2008E-01  0.2008E-01  0.4400E+02  0.4400E+02
      1.110  0.7113E-03  0.7113E-03  0.4400E+02  0.4400E+02
      1.228  0.1293E-04  0.1293E-04  0.4400E+02  0.4400E+02
      1.346  0.1197E-06  0.1197E-06  0.4400E+02  0.4400E+02
      1.464  0.5620E-09  0.5620E-09  0.4400E+02  0.4400E+02
      1.582  0.1332E-11  0.1332E-11  0.4400E+02  0.4400E+02
      1.700  0.0000E+00  0.0000E+00  0.4400E+02  0.4400E+02
      1.818  0.0000E+00  0.0000E+00  0.4400E+02  0.4400E+02
      1.936  0.0000E+00  0.0000E+00  0.4400E+02  0.4400E+02
      2.054  0.0000E+00  0.0000E+00  0.4400E+02  0.4400E+02
      2.172  0.0000E+00  0.0000E+00  0.4400E+02  0.4400E+02
      2.290  0.0000E+00  0.0000E+00  0.4400E+02  0.4400E+02
      2.408  0.0000E+00  0.0000E+00  0.4400E+02  0.4400E+02
      2.526  0.0000E+00  0.0000E+00  0.4400E+02  0.4400E+02
      2.644  0.0000E+00  0.0000E+00  0.4400E+02  0.4400E+02
      2.762  0.0000E+00  0.0000E+00  0.4400E+02  0.4400E+02
      2.880  0.0000E+00  0.0000E+00  0.4400E+02  0.4400E+02
      2.998  0.0000E+00  0.0000E+00  0.4400E+02  0.4400E+02
      3.116  0.0000E+00  0.0000E+00  0.4400E+02  0.4400E+02
      3.234  0.0000E+00  0.0000E+00  0.4400E+02  0.4400E+02
      3.352  0.4704E-14  0.4704E-14  0.4400E+02  0.4400E+02
      3.470  0.2956E-11  0.2956E-11  0.4400E+02  0.4400E+02
      3.588  0.1013E-08  0.1013E-08  0.4400E+02  0.4400E+02
      3.706  0.1754E-06  0.1754E-06  0.4400E+02  0.4400E+02
      3.824  0.1539E-04  0.1539E-04  0.4400E+02  0.4400E+02
      3.942  0.6858E-03  0.6858E-03  0.4400E+02  0.4400E+02
      4.060  0.1560E-01  0.1560E-01  0.4400E+02  0.4400E+02
      4.178  0.1817E+00  0.1817E+00  0.4402E+02  0.4402E+02
      4.296  0.1089E+01  0.1089E+01  0.4415E+02  0.4415E+02
      4.414  0.3369E+01  0.3369E+01  0.4455E+02  0.4455E+02
      4.532  0.5398E+01  0.5398E+01  0.4519E+02  0.4519E+02
      4.650  0.4484E+01  0.4484E+01  0.4572E+02  0.4572E+02
      4.768  0.1930E+01  0.1930E+01  0.4594E+02  0.4594E+02
      4.886  0.4295E+00  0.4295E+00  0.4599E+02  0.4599E+02
      5.004  0.5192E-01  0.5192E-01  0.4600E+02  0.4600E+02
      5.122  0.5614E-01  0.5614E-01  0.4601E+02  0.4601E+02
      5.240  0.5443E+00  0.5443E+00  0.4607E+02  0.4607E+02
      5.358  0.2864E+01  0.2864E+01  0.4641E+02  0.4641E+02
      5.476  0.7787E+01  0.7787E+01  0.4733E+02  0.4733E+02
      5.594  0.1100E+02  0.1100E+02  0.4863E+02  0.4863E+02
      5.712  0.8459E+01  0.8459E+01  0.4962E+02  0.4962E+02
      5.830  0.5909E+01  0.5909E+01  0.5032E+02  0.5032E+02
      5.948  0.1002E+02  0.1002E+02  0.5150E+02  0.5150E+02
      6.066  0.1602E+02  0.1602E+02  0.5339E+02  0.5339E+02
      6.184  0.1402E+02  0.1402E+02  0.5505E+02  0.5505E+02
      6.302  0.6376E+01  0.6376E+01  0.5580E+02  0.5580E+02
      6.420  0.1500E+01  0.1500E+01  0.5598E+02  0.5598E+02
      6.538  0.1820E+00  0.1820E+00  0.5600E+02  0.5600E+02
      6.656  0.1210E-01  0.1210E-01  0.5600E+02  0.5600E+02
      6.774  0.2134E-01  0.2134E-01  0.5600E+02  0.5600E+02
      6.892  0.2943E+00  0.2943E+00  0.5604E+02  0.5604E+02
      7.010  0.2121E+01  0.2121E+01  0.5629E+02  0.5629E+02
      7.128  0.7886E+01  0.7886E+01  0.5722E+02  0.5722E+02
      7.246  0.1517E+02  0.1517E+02  0.5901E+02  0.5901E+02
      7.364  0.1513E+02  0.1513E+02  0.6079E+02  0.6079E+02
      7.482  0.7821E+01  0.7821E+01  0.6172E+02  0.6172E+02
      7.600  0.2092E+01  0.2092E+01  0.6196E+02  0.6196E+02
      7.718  0.2902E+00  0.2903E+00  0.6200E+02  0.6200E+02
      7.836  0.5930E-01  0.5930E-01  0.6200E+02  0.6200E+02
      7.954  0.4736E+00  0.4736E+00  0.6206E+02  0.6206E+02
      8.072  0.2961E+01  0.2961E+01  0.6241E+02  0.6241E+02
      8.190  0.9572E+01  0.9572E+01  0.6354E+02  0.6354E+02
      8.308  0.1602E+02  0.1602E+02  0.6543E+02  0.6543E+02
      8.426  0.1390E+02  0.1390E+02  0.6707E+02  0.6707E+02
      8.544  0.6248E+01  0.6248E+01  0.6781E+02  0.6781E+02
      8.662  0.1453E+01  0.1453E+01  0.6798E+02  0.6798E+02
      8.780  0.1741E+00  0.1741E+00  0.6800E+02  0.6800E+02
      8.898  0.1071E-01  0.1071E-01  0.6800E+02  0.6800E+02
      9.016  0.3368E-03  0.3368E-03  0.6800E+02  0.6800E+02
      9.134  0.5393E-05  0.5393E-05  0.6800E+02  0.6800E+02
      9.252  0.4453E-07  0.4453E-07  0.6800E+02  0.6800E+02
      9.370  0.1438E-06  0.1438E-06  0.6800E+02  0.6800E+02
      9.488  0.1463E-04  0.1463E-04  0.6800E+02  0.6800E+02
      9.606  0.7668E-03  0.7668E-03  0.6800E+02  0.6800E+02
      9.724  0.2087E-01  0.2087E-01  0.6800E+02  0.6800E+02
      9.842  0.2986E+00  0.2986E+00  0.6804E+02  0.6804E+02
      9.960  0.2278E+01  0.2278E+01  0.6831E+02  0.6831E+02
     10.078  0.9395E+01  0.9395E+01  0.6942E+02  0.6942E+02
     10.196  0.2115E+02  0.2115E+02  0.7191E+02  0.7191E+02
     10.314  0.2612E+02  0.2612E+02  0.7499E+02  0.7499E+02
     10.432  0.1763E+02  0.1763E+02  0.7707E+02  0.7707E+02
     10.550  0.6448E+01  0.6448E+01  0.7783E+02  0.7783E+02
     10.668  0.1268E+01  0.1268E+01  0.7798E+02  0.7798E+02
     10.786  0.2167E+00  0.2167E+00  0.7801E+02  0.7801E+02
     10.904  0.6519E+00  0.6519E+00  0.7809E+02  0.7809E+02
     11.022  0.2487E+01  0.2487E+01  0.7838E+02  0.7838E+02
     11.140  0.4962E+01  0.4962E+01  0.7897E+02  0.7897E+02
     11.258  0.5131E+01  0.5131E+01  0.7957E+02  0.7957E+02
     11.376  0.2751E+01  0.2751E+01  0.7990E+02  0.7990E+02
     11.494  0.7631E+00  0.7631E+00  0.7999E+02  0.7999E+02
     11.612  0.1092E+00  0.1092E+00  0.8000E+02  0.8000E+02
     11.730  0.8034E-02  0.8034E-02  0.8000E+02  0.8000E+02
     11.848  0.3024E-03  0.3024E-03  0.8000E+02  0.8000E+02
     11.966  0.5803E-05  0.5803E-05  0.8000E+02  0.8000E+02
     12.084  0.5654E-07  0.5654E-07  0.8000E+02  0.8000E+02
     12.202  0.2789E-09  0.2789E-09  0.8000E+02  0.8000E+02
     12.320  0.6962E-12  0.6962E-12  0.8000E+02  0.8000E+02
     12.438  0.0000E+00  0.0000E+00  0.8000E+02  0.8000E+02
     12.556  0.0000E+00  0.0000E+00  0.8000E+02  0.8000E+02
     12.674  0.0000E+00  0.0000E+00  0.8000E+02  0.8000E+02
     12.792  0.0000E+00  0.0000E+00  0.8000E+02  0.8000E+02
     12.910  0.0000E+00  0.0000E+00  0.8000E+02  0.8000E+02
     13.028  0.0000E+00  0.0000E+00  0.8000E+02  0.8000E+02
     13.146  0.0000E+00  0.0000E+00  0.8000E+02  0.8000E+02
