 vasp.5.4.4.18Apr17-6-g9f103f2a35 (build Jul 10 2018 00:17:35) complex          
  
 executed on             LinuxIFC date 2024.04.13  20:30:49
 running on   40 total cores
 distrk:  each k-point on   40 cores,    1 groups
 distr:  one band on NCORES_PER_BAND=   1 cores,   40 groups


--------------------------------------------------------------------------------------------------------


 INCAR:
 POTCAR:    PAW_PBE Cs_sv 08Apr2002               
 POTCAR:    PAW_PBE Pb_d 06Sep2000                
 POTCAR:    PAW_PBE I 08Apr2002                   

 ----------------------------------------------------------------------------- 
|                                                                             |
|           W    W    AA    RRRRR   N    N  II  N    N   GGGG   !!!           |
|           W    W   A  A   R    R  NN   N  II  NN   N  G    G  !!!           |
|           W    W  A    A  R    R  N N  N  II  N N  N  G       !!!           |
|           W WW W  AAAAAA  RRRRR   N  N N  II  N  N N  G  GGG   !            |
|           WW  WW  A    A  R   R   N   NN  II  N   NN  G    G                |
|           W    W  A    A  R    R  N    N  II  N    N   GGGG   !!!           |
|                                                                             |
|      For optimal performance we recommend to set                            |
|        NCORE= 4 - approx SQRT( number of cores)                             |
|      NCORE specifies how many cores store one orbital (NPAR=cpu/NCORE).     |
|      This setting can  greatly improve the performance of VASP for DFT.     |
|      The default,   NCORE=1            might be grossly inefficient         |
|      on modern multi-core architectures or massively parallel machines.     |
|      Do your own testing !!!!                                               |
|      Unfortunately you need to use the default for GW and RPA calculations. |
|      (for HF NCORE is supported but not extensively tested yet)             |
|                                                                             |
 ----------------------------------------------------------------------------- 

 POTCAR:    PAW_PBE Cs_sv 08Apr2002               
   VRHFIN =Cs: 5s5p6s                                                           
   LEXCH  = PE                                                                  
   EATOM  =   555.6835 eV,   40.8416 Ry                                         
                                                                                
   TITEL  = PAW_PBE Cs_sv 08Apr2002                                             
   LULTRA =        F    use ultrasoft PP ?                                      
   IUNSCR =        1    unscreen: 0-lin 1-nonlin 2-no                           
   RPACOR =    2.200    partial core radius                                     
   POMASS =  132.900; ZVAL   =    9.000    mass and valenz                      
   RCORE  =    2.500    outmost cutoff radius                                   
   RWIGS  =    2.500; RWIGS  =    1.323    wigner-seitz radius (au A)           
   ENMAX  =  220.318; ENMIN  =  165.238 eV                                      
   RCLOC  =    2.207    cutoff for local pot                                    
   LCOR   =        T    correct aug charges                                     
   LPAW   =        T    paw PP                                                  
   EAUG   =  407.933                                                            
   DEXC   =    0.000                                                            
   RMAX   =    2.554    core radius for proj-oper                               
   RAUG   =    1.300    factor for augmentation sphere                          
   RDEP   =    2.590    radius for radial grids                                 
   RDEPT  =    2.117    core radius for aug-charge                              
                                                                                
   Atomic configuration                                                         
   13 entries                                                                   
     n  l   j            E        occ.                                          
     1  0  0.50    -35790.1377   2.0000                                         
     2  0  0.50     -5613.6201   2.0000                                         
     2  1  1.50     -5035.0101   6.0000                                         
     3  0  0.50     -1167.0767   2.0000                                         
     3  1  1.50      -980.9754   6.0000                                         
     3  2  2.50      -708.0703  10.0000                                         
     4  0  0.50      -220.2386   2.0000                                         
     4  1  1.50      -160.7596   6.0000                                         
     4  2  2.50       -74.2354  10.0000                                         
     5  0  0.50       -26.7287   2.0000                                         
     6  0  0.50        -2.0862   1.0000                                         
     5  1  1.50       -13.5159   6.0000                                         
     5  2  2.50        -0.4136   0.0000                                         
   Description                                                                  
     l       E           TYP  RCUT    TYP  RCUT                                 
     0    -26.7287425     23  1.900                                             
     0     -2.0862306     23  1.900                                             
     1    -13.5158719     23  2.500                                             
     1     -2.7211652     23  2.500                                             
     2     -0.4136171     23  2.500                                             
  local pseudopotential read in
  partial core-charges read in
  partial kinetic energy density read in
  atomic valenz-charges read in
  non local Contribution for L=           0  read in
    real space projection operators read in
  non local Contribution for L=           0  read in
    real space projection operators read in
  non local Contribution for L=           1  read in
    real space projection operators read in
  non local Contribution for L=           1  read in
    real space projection operators read in
  non local Contribution for L=           2  read in
    real space projection operators read in
    PAW grid and wavefunctions read in
 
   number of l-projection  operators is LMAX  =           5
   number of lm-projection operators is LMMAX =          13
 
 POTCAR:    PAW_PBE Pb_d 06Sep2000                
   VRHFIN =Pb:                                                                  
   LEXCH  = PE                                                                  
   EATOM  =  1661.6185 eV,  122.1255 Ry                                         
                                                                                
   TITEL  = PAW_PBE Pb_d 06Sep2000                                              
   LULTRA =        F    use ultrasoft PP ?                                      
   IUNSCR =        1    unscreen: 0-lin 1-nonlin 2-no                           
   RPACOR =    2.200    partial core radius                                     
   POMASS =  207.200; ZVAL   =   14.000    mass and valenz                      
   RCORE  =    2.500    outmost cutoff radius                                   
   RWIGS  =    3.260; RWIGS  =    1.725    wigner-seitz radius (au A)           
   ENMAX  =  237.835; ENMIN  =  178.376 eV                                      
   ICORE  =        3    local potential                                         
   LCOR   =        T    correct aug charges                                     
   LPAW   =        T    paw PP                                                  
   EAUG   =  391.914                                                            
   DEXC   =    0.000                                                            
   RMAX   =    2.565    core radius for proj-oper                               
   RAUG   =    1.300    factor for augmentation sphere                          
   RDEP   =    2.643    radius for radial grids                                 
   RDEPT  =    2.092    core radius for aug-charge                              
                                                                                
   Atomic configuration                                                         
   16 entries                                                                   
     n  l   j            E        occ.                                          
     1  0  0.50    -88091.8466   2.0000                                         
     2  0  0.50    -15753.4197   2.0000                                         
     2  1  1.50    -13508.1797   6.0000                                         
     3  0  0.50     -3781.7194   2.0000                                         
     3  1  1.50     -3138.2529   6.0000                                         
     3  2  2.50     -2483.2977  10.0000                                         
     4  0  0.50      -856.2895   2.0000                                         
     4  1  1.50      -645.4942   6.0000                                         
     4  2  2.50      -401.8768  10.0000                                         
     4  3  3.50      -132.9059  14.0000                                         
     5  0  0.50      -144.0950   2.0000                                         
     5  1  1.50       -85.7879   6.0000                                         
     5  2  2.50       -21.1769  10.0000                                         
     6  0  0.50       -12.0372   2.0000                                         
     6  1  1.50        -3.4971   2.0000                                         
     5  3  2.50        -2.7212   0.0000                                         
   Description                                                                  
     l       E           TYP  RCUT    TYP  RCUT                                 
     2    -21.1768523     23  2.500                                             
     2      1.3605826     23  2.500                                             
     0    -12.0371562     23  2.500                                             
     0     13.6058260     23  2.500                                             
     1     -3.4971339     23  2.500                                             
     1     13.6058260     23  2.500                                             
     3     -1.3605826      7  2.500                                             
  local pseudopotential read in
  partial core-charges read in
  partial kinetic energy density read in
  atomic valenz-charges read in
  non local Contribution for L=           2  read in
    real space projection operators read in
  non local Contribution for L=           2  read in
    real space projection operators read in
  non local Contribution for L=           0  read in
    real space projection operators read in
  non local Contribution for L=           0  read in
    real space projection operators read in
  non local Contribution for L=           1  read in
    real space projection operators read in
  non local Contribution for L=           1  read in
    real space projection operators read in
    PAW grid and wavefunctions read in
 
   number of l-projection  operators is LMAX  =           6
   number of lm-projection operators is LMMAX =          18
 
 POTCAR:    PAW_PBE I 08Apr2002                   
   VRHFIN =I : s2p5                                                             
   LEXCH  = PE                                                                  
   EATOM  =   315.8678 eV,   23.2156 Ry                                         
                                                                                
   TITEL  = PAW_PBE I 08Apr2002                                                 
   LULTRA =        F    use ultrasoft PP ?                                      
   IUNSCR =        1    unscreen: 0-lin 1-nonlin 2-no                           
   RPACOR =    2.200    partial core radius                                     
   POMASS =  126.904; ZVAL   =    7.000    mass and valenz                      
   RCORE  =    2.300    outmost cutoff radius                                   
   RWIGS  =    2.810; RWIGS  =    1.487    wigner-seitz radius (au A)           
   ENMAX  =  175.647; ENMIN  =  131.735 eV                                      
   ICORE  =        3    local potential                                         
   LCOR   =        T    correct aug charges                                     
   LPAW   =        T    paw PP                                                  
   EAUG   =  370.139                                                            
   DEXC   =    0.000                                                            
   RMAX   =    2.359    core radius for proj-oper                               
   RAUG   =    1.300    factor for augmentation sphere                          
   RDEP   =    2.392    radius for radial grids                                 
   RDEPT  =    2.170    core radius for aug-charge                              
                                                                                
   Atomic configuration                                                         
   13 entries                                                                   
     n  l   j            E        occ.                                          
     1  0  0.50    -32976.3739   2.0000                                         
     2  0  0.50     -5094.5933   2.0000                                         
     2  1  1.50     -4572.0131   6.0000                                         
     3  0  0.50     -1028.2813   2.0000                                         
     3  1  1.50      -859.0250   6.0000                                         
     3  2  2.50      -605.7620  10.0000                                         
     4  0  0.50      -180.5540   2.0000                                         
     4  1  1.50      -127.5306   6.0000                                         
     4  2  2.50       -50.2720  10.0000                                         
     5  0  0.50       -17.4058   2.0000                                         
     5  1  0.50        -7.0851   5.0000                                         
     5  2  1.50        -7.0750   0.0000                                         
     4  3  2.50        -7.0750   0.0000                                         
   Description                                                                  
     l       E           TYP  RCUT    TYP  RCUT                                 
     0    -17.4058016     23  2.300                                             
     0    -18.7663842     23  2.300                                             
     1     -7.0850686     23  2.300                                             
     1     -4.2150896     23  2.300                                             
     2     -7.0750295     23  2.300                                             
     3     -1.3605826     23  2.300                                             
  local pseudopotential read in
  partial core-charges read in
  partial kinetic energy density read in
  atomic valenz-charges read in
  non local Contribution for L=           0  read in
    real space projection operators read in
  non local Contribution for L=           0  read in
    real space projection operators read in
  non local Contribution for L=           1  read in
    real space projection operators read in
  non local Contribution for L=           1  read in
    real space projection operators read in
  non local Contribution for L=           2  read in
    real space projection operators read in
    PAW grid and wavefunctions read in
 
   number of l-projection  operators is LMAX  =           5
   number of lm-projection operators is LMMAX =          13
 
  PAW_PBE Cs_sv 08Apr2002               :
 energy of atom  1       EATOM= -555.6835
 kinetic energy error for atom=    0.0019 (will be added to EATOM!!)
  PAW_PBE Pb_d 06Sep2000                :
 energy of atom  2       EATOM=-1661.6185
 kinetic energy error for atom=    0.0047 (will be added to EATOM!!)
  PAW_PBE I 08Apr2002                   :
 energy of atom  3       EATOM= -315.8678
 kinetic energy error for atom=    0.0009 (will be added to EATOM!!)
 
 
 POSCAR: Cs Pb  I                                
  positions in cartesian coordinates
  No initial velocities read in
 exchange correlation table for  LEXCH =        8
   RHO(1)=    0.500       N(1)  =     2000
   RHO(2)=  100.500       N(2)  =     4000
 


--------------------------------------------------------------------------------------------------------


 ion  position               nearest neighbor table
   1  0.000  0.000  0.000-
   2  0.500  0.500  0.500-   3 3.19   4 3.19   5 3.19   3 3.19   5 3.19   4 3.19
   3  0.500  0.500  0.000-   2 3.19   2 3.19
   4  0.000  0.500  0.500-   2 3.19   2 3.19
   5  0.500  0.000  0.500-   2 3.19   2 3.19
 

IMPORTANT INFORMATION: All symmetrisations will be switched off!
NOSYMM: (Re-)initialisation of all symmetry stuff for point group C_1.

 
 
 KPOINTS: KPOINTS created by Atomic Simulation Env

Automatic generation of k-mesh.
Space group operators:
 irot       det(A)        alpha          n_x          n_y          n_z        tau_x        tau_y        tau_z
    1     1.000000     0.000000     1.000000     0.000000     0.000000     0.000000     0.000000     0.000000
 
 Subroutine IBZKPT returns following result:
 ===========================================
 
 Found      1 irreducible k-points:
 
 Following reciprocal coordinates:
            Coordinates               Weight
  0.000000  0.000000  0.000000      1.000000
 
 Following cartesian coordinates:
            Coordinates               Weight
  0.000000  0.000000  0.000000      1.000000
 


--------------------------------------------------------------------------------------------------------




 Dimension of arrays:
   k-points           NKPTS =      1   k-points in BZ     NKDIM =      1   number of bands    NBANDS=     40
   number of dos      NEDOS =    301   number of ions     NIONS =      5
   non local maximal  LDIM  =      6   non local SUM 2l+1 LMDIM =     18
   total plane-waves  NPLWV = 110592
   max r-space proj   IRMAX =      1   max aug-charges    IRDMAX= 197382
   dimension x,y,z NGX =    48 NGY =   48 NGZ =   48
   dimension x,y,z NGXF=    96 NGYF=   96 NGZF=   96
   support grid    NGXF=   192 NGYF=  192 NGZF=  192
   ions per type =               1   1   3
   NGX,Y,Z   is equivalent  to a cutoff of  12.51, 12.51, 12.51 a.u.
   NGXF,Y,Z  is equivalent  to a cutoff of  25.02, 25.02, 25.02 a.u.

 SYSTEM =  unknown system                          
 POSCAR =  Cs Pb  I                                

 Startparameter for this run:
   NWRITE =      2    write-flag & timer
   PREC   = accura    normal or accurate (medium, high low for compatibility)
   ISTART =      1    job   : 0-new  1-cont  2-samecut
   ICHARG =      0    charge: 1-file 2-atom 10-const
   ISPIN  =      2    spin polarized calculation?
   LNONCOLLINEAR =      F non collinear calculations
   LSORBIT =      F    spin-orbit coupling
   INIWAV =      1    electr: 0-lowe 1-rand  2-diag
   LASPH  =      F    aspherical Exc in radial PAW
   METAGGA=      F    non-selfconsistent MetaGGA calc.

 Electronic Relaxation 1
   ENCUT  =  500.0 eV  36.75 Ry    6.06 a.u.  11.63 11.63 11.63*2*pi/ulx,y,z
   ENINI  =  500.0     initial cutoff
   ENAUG  =  407.9 eV  augmentation charge cutoff
   NELM   =     60;   NELMIN=  2; NELMDL= -4     # of ELM steps 
   EDIFF  = 0.1E-07   stopping-criterion for ELM
   LREAL  =      F    real-space projection
   NLSPLINE    = F    spline interpolate recip. space projectors
   LCOMPAT=      F    compatible to vasp.4.4
   GGA_COMPAT  = T    GGA compatible to vasp.4.4-vasp.4.6
   LMAXPAW     = -100 max onsite density
   LMAXMIX     =    2 max onsite mixed and CHGCAR
   VOSKOWN=      0    Vosko Wilk Nusair interpolation
   ROPT   =    0.00000   0.00000   0.00000
 Ionic relaxation
   EDIFFG = 0.1E-06   stopping-criterion for IOM
   NSW    =      0    number of steps for IOM
   NBLOCK =      1;   KBLOCK =      1    inner block; outer block 
   IBRION =     -1    ionic relax: 0-MD 1-quasi-New 2-CG
   NFREE  =      0    steps in history (QN), initial steepest desc. (CG)
   ISIF   =      2    stress and relaxation
   IWAVPR =     10    prediction:  0-non 1-charg 2-wave 3-comb
   ISYM   =      0    0-nonsym 1-usesym 2-fastsym
   LCORR  =      T    Harris-Foulkes like correction to forces

   POTIM  = 0.5000    time-step for ionic-motion
   TEIN   =    0.0    initial temperature
   TEBEG  =    0.0;   TEEND  =   0.0 temperature during run
   SMASS  =  -3.00    Nose mass-parameter (am)
   estimated Nose-frequenzy (Omega)   =  0.10E-29 period in steps =****** mass=  -0.930E-27a.u.
   SCALEE = 1.0000    scale energy and forces
   NPACO  =    256;   APACO  = 16.0  distance and # of slots for P.C.
   PSTRESS=    0.0 pullay stress

  Mass of Ions in am
   POMASS = 132.90207.20126.90
  Ionic Valenz
   ZVAL   =   9.00 14.00  7.00
  Atomic Wigner-Seitz radii
   RWIGS  =  -1.00 -1.00 -1.00
  virtual crystal weights 
   VCA    =   1.00  1.00  1.00
   NELECT =      44.0000    total number of electrons
   NUPDOWN=       0.0000    fix difference up-down

 DOS related values:
   EMIN   =  10.00;   EMAX   =-10.00  energy-range for DOS
   EFERMI =   0.00
   ISMEAR =     0;   SIGMA  =   0.20  broadening in eV -4-tet -1-fermi 0-gaus

 Electronic relaxation 2 (details)
   IALGO  =     68    algorithm
   LDIAG  =      T    sub-space diagonalisation (order eigenvalues)
   LSUBROT=      F    optimize rotation matrix (better conditioning)
   TURBO    =      0    0=normal 1=particle mesh
   IRESTART =      0    0=no restart 2=restart with 2 vectors
   NREBOOT  =      0    no. of reboots
   NMIN     =      0    reboot dimension
   EREF     =   0.00    reference energy to select bands
   IMIX   =      4    mixing-type and parameters
     AMIX     =   0.40;   BMIX     =  1.00
     AMIX_MAG =   1.60;   BMIX_MAG =  1.00
     AMIN     =   0.10
     WC   =   100.;   INIMIX=   1;  MIXPRE=   1;  MAXMIX= -45

 Intra band minimization:
   WEIMIN = 0.0000     energy-eigenvalue tresh-hold
   EBREAK =  0.63E-10  absolut break condition
   DEPER  =   0.30     relativ break condition  

   TIME   =   0.40     timestep for ELM

  volume/ion in A,a.u.               =      51.90       350.26
  Fermi-wavevector in a.u.,A,eV,Ry     =   0.906089  1.712260 11.170342  0.820997
  Thomas-Fermi vector in A             =   2.029735
 
 Write flags
   LWAVE        =      T    write WAVECAR
   LDOWNSAMPLE  =      F    k-point downsampling of WAVECAR
   LCHARG       =      T    write CHGCAR
   LVTOT        =      F    write LOCPOT, total local potential
   LVHAR        =      F    write LOCPOT, Hartree potential only
   LELF         =      F    write electronic localiz. function (ELF)
   LORBIT       =      0    0 simple, 1 ext, 2 COOP (PROOUT), +10 PAW based schemes


 Dipole corrections
   LMONO  =      F    monopole corrections only (constant potential shift)
   LDIPOL =      F    correct potential (dipole corrections)
   IDIPOL =      0    1-x, 2-y, 3-z, 4-all directions 
   EPSILON=  1.0000000 bulk dielectric constant

 Exchange correlation treatment:
   GGA     =    PE    GGA type
   LEXCH   =     8    internal setting for exchange type
   VOSKOWN=      0    Vosko Wilk Nusair interpolation
   LHFCALC =     F    Hartree Fock is set to
   LHFONE  =     F    Hartree Fock one center treatment
   AEXX    =    0.0000 exact exchange contribution

 Linear response parameters
   LEPSILON=     F    determine dielectric tensor
   LRPA    =     F    only Hartree local field effects (RPA)
   LNABLA  =     F    use nabla operator in PAW spheres
   LVEL    =     F    velocity operator in full k-point grid
   LINTERFAST=   F  fast interpolation
   KINTER  =     0    interpolate to denser k-point grid
   CSHIFT  =0.1000    complex shift for real part using Kramers Kronig
   OMEGAMAX=  -1.0    maximum frequency
   DEG_THRESHOLD= 0.2000000E-02 threshold for treating states as degnerate
   RTIME   =   -0.100 relaxation time in fs
  (WPLASMAI=    0.000 imaginary part of plasma frequency in eV, 0.658/RTIME)
   DFIELD  = 0.0000000 0.0000000 0.0000000 field for delta impulse in time
 
 Orbital magnetization related:
   ORBITALMAG=     F  switch on orbital magnetization
   LCHIMAG   =     F  perturbation theory with respect to B field
   DQ        =  0.001000  dq finite difference perturbation B field
   LLRAUG    =     F  two centre corrections for induced B field



--------------------------------------------------------------------------------------------------------


 Static calculation
 charge density and potential will be updated during run
 spin polarized calculation
 RMM-DIIS sequential band-by-band and
  variant of blocked Davidson during initial phase
 perform sub-space diagonalisation
    before iterative eigenvector-optimisation
 modified Broyden-mixing scheme, WC =      100.0
 initial mixing is a Kerker type mixing with AMIX =  0.4000 and BMIX =      1.0000
 Hartree-type preconditioning will be used
 using additional bands           18
 reciprocal scheme for non local part
 use partial core corrections
 calculate Harris-corrections to forces 
   (improved forces if not selfconsistent)
 use gradient corrections 
 use of overlap-Matrix (Vanderbilt PP)
 Gauss-broadening in eV      SIGMA  =   0.20


--------------------------------------------------------------------------------------------------------


  energy-cutoff  :      500.00
  volume of cell :      259.52
      direct lattice vectors                 reciprocal lattice vectors
     6.378544795  0.000000000  0.000000000     0.156775571  0.000000000  0.000000000
     0.000000000  6.378544795  0.000000000     0.000000000  0.156775571  0.000000000
     0.000000000  0.000000000  6.378544795     0.000000000  0.000000000  0.156775571

  length of vectors
     6.378544795  6.378544795  6.378544795     0.156775571  0.156775571  0.156775571


 
 old parameters found on file WAVECAR:
  energy-cutoff  :      500.00
  volume of cell :      259.52
      direct lattice vectors                 reciprocal lattice vectors
     6.378544795  0.000000000  0.000000000     0.156775571  0.000000000  0.000000000
     0.000000000  6.378544795  0.000000000     0.000000000  0.156775571  0.000000000
     0.000000000  0.000000000  6.378544795     0.000000000  0.000000000  0.156775571

  length of vectors

 
 k-points in units of 2pi/SCALE and weight: KPOINTS created by Atomic Simulation Env
   0.00000000  0.00000000  0.00000000       1.000
 
 k-points in reciprocal lattice and weights: KPOINTS created by Atomic Simulation Env
   0.00000000  0.00000000  0.00000000       1.000
 
 position of ions in fractional coordinates (direct lattice) 
   0.00000000  0.00000000  0.00000000
   0.50000000  0.50000000  0.50000000
   0.50000000  0.50000000  0.00000000
   0.00000000  0.50000000  0.50000000
   0.50000000  0.00000000  0.50000000
 
 position of ions in cartesian coordinates  (Angst):
   0.00000000  0.00000000  0.00000000
   3.18927240  3.18927240  3.18927240
   3.18927240  3.18927240  0.00000000
   0.00000000  3.18927240  3.18927240
   3.18927240  0.00000000  3.18927240
 


--------------------------------------------------------------------------------------------------------


 k-point  1 :   0.0000 0.0000 0.0000  plane waves:    6619

 maximum and minimum number of plane-waves per node :      6619     6619

 maximum number of plane-waves:      6619
 maximum index in each direction: 
   IXMAX=   11   IYMAX=   11   IZMAX=   11
   IXMIN=  -11   IYMIN=  -11   IZMIN=  -11


 serial   3D FFT for wavefunctions
 parallel 3D FFT for charge:
    minimum data exchange during FFTs selected (reduces bandwidth)


 total amount of memory used by VASP MPI-rank0    49058. kBytes
=======================================================================

   base      :      30000. kBytes
   nonl-proj :       3399. kBytes
   fftplans  :       3894. kBytes
   grid      :      11395. kBytes
   one-center:        155. kBytes
   wavefun   :        215. kBytes
 
     INWAV:  cpu time    0.0573: real time    0.0575
 Broyden mixing: mesh for mixing (old mesh)
   NGX = 23   NGY = 23   NGZ = 23
  (NGX  = 96   NGY  = 96   NGZ  = 96)
  gives a total of  12167 points

 charge density for first step will be calculated from the start-wavefunctions


--------------------------------------------------------------------------------------------------------


 Maximum index for augmentation-charges         5422 (set IRDMAX)


--------------------------------------------------------------------------------------------------------


 initial charge from wavefunction
 First call to EWALD:  gamma=   0.278
 Maximum number of real-space cells 3x 3x 3
 Maximum number of reciprocal cells 3x 3x 3

    FEWALD:  cpu time    0.0016: real time    0.0016


--------------------------------------- Iteration      1(   1)  ---------------------------------------


    POTLOK:  cpu time    0.0377: real time    0.0398
    SETDIJ:  cpu time    0.0438: real time    0.0443
     EDDAV:  cpu time    0.0632: real time    0.0643
       DOS:  cpu time    0.0005: real time    0.0006
    --------------------------------------------
      LOOP:  cpu time    0.1452: real time    0.1490

 eigenvalue-minimisations  :   160
 total energy-change (2. order) :-0.1684277E+02  (-0.1091436E-09)
 number of electron      44.0000000 magnetization       0.0000000
 augmentation part       -1.4395887 magnetization      -0.0000003

 Free energy of the ion-electron system (eV)
  ---------------------------------------------------
  alpha Z        PSCENC =        63.40493880
  Ewald energy   TEWEN  =     -2091.56620758
  -Hartree energ DENC   =      -958.06123053
  -exchange      EXHF   =         0.00000000
  -V(xc)+E(xc)   XCENC  =         9.03035892
  PAW double counting   =      3039.44811403    -2936.70531464
  entropy T*S    EENTRO =        -0.00000000
  eigenvalues    EBANDS =      -307.28956958
  atomic energy  EATOM  =      3164.89613944
  Solvation  Ediel_sol  =         0.00000000
  ---------------------------------------------------
  free energy    TOTEN  =       -16.84277115 eV

  energy without entropy =      -16.84277115  energy(sigma->0) =      -16.84277115


--------------------------------------------------------------------------------------------------------




--------------------------------------- Iteration      1(   2)  ---------------------------------------


     EDDAV:  cpu time    0.0604: real time    0.0627
       DOS:  cpu time    0.0002: real time    0.0002
    --------------------------------------------
      LOOP:  cpu time    0.0605: real time    0.0629

 eigenvalue-minimisations  :   160
 total energy-change (2. order) :-0.2728484E-11  (-0.1786460E-11)
 number of electron      44.0000000 magnetization       0.0000000
 augmentation part       -1.4395887 magnetization      -0.0000003

 Free energy of the ion-electron system (eV)
  ---------------------------------------------------
  alpha Z        PSCENC =        63.40493880
  Ewald energy   TEWEN  =     -2091.56620758
  -Hartree energ DENC   =      -958.06123053
  -exchange      EXHF   =         0.00000000
  -V(xc)+E(xc)   XCENC  =         9.03035892
  PAW double counting   =      3039.44811403    -2936.70531464
  entropy T*S    EENTRO =        -0.00000000
  eigenvalues    EBANDS =      -307.28956958
  atomic energy  EATOM  =      3164.89613944
  Solvation  Ediel_sol  =         0.00000000
  ---------------------------------------------------
  free energy    TOTEN  =       -16.84277115 eV

  energy without entropy =      -16.84277115  energy(sigma->0) =      -16.84277115


--------------------------------------------------------------------------------------------------------




--------------------------------------- Iteration      1(   3)  ---------------------------------------


     EDDAV:  cpu time    0.0859: real time    0.0909
       DOS:  cpu time    0.0002: real time    0.0002
    --------------------------------------------
      LOOP:  cpu time    0.0861: real time    0.0911

 eigenvalue-minimisations  :   200
 total energy-change (2. order) : 0.0000000E+00  ( 0.6392109E-12)
 number of electron      44.0000000 magnetization       0.0000000
 augmentation part       -1.4395887 magnetization      -0.0000003

 Free energy of the ion-electron system (eV)
  ---------------------------------------------------
  alpha Z        PSCENC =        63.40493880
  Ewald energy   TEWEN  =     -2091.56620758
  -Hartree energ DENC   =      -958.06123053
  -exchange      EXHF   =         0.00000000
  -V(xc)+E(xc)   XCENC  =         9.03035892
  PAW double counting   =      3039.44811403    -2936.70531464
  entropy T*S    EENTRO =        -0.00000000
  eigenvalues    EBANDS =      -307.28956958
  atomic energy  EATOM  =      3164.89613944
  Solvation  Ediel_sol  =         0.00000000
  ---------------------------------------------------
  free energy    TOTEN  =       -16.84277115 eV

  energy without entropy =      -16.84277115  energy(sigma->0) =      -16.84277115


--------------------------------------------------------------------------------------------------------




--------------------------------------- Iteration      1(   4)  ---------------------------------------


     EDDAV:  cpu time    0.0348: real time    0.0400
       DOS:  cpu time    0.0002: real time    0.0002
    CHARGE:  cpu time    0.0502: real time    0.0508
    MIXING:  cpu time    0.0012: real time    0.0013
    --------------------------------------------
      LOOP:  cpu time    0.0864: real time    0.0923

 eigenvalue-minimisations  :    80
 total energy-change (2. order) : 0.0000000E+00  ( 0.1158296E-11)
 number of electron      44.0000000 magnetization      -0.0000000
 augmentation part       -1.4395871 magnetization      -0.0000000

 Broyden mixing:
  rms(total) = 0.43666E-05    rms(broyden)= 0.43666E-05
  rms(prec ) = 0.51617E-05
  weight for this iteration     100.00

 Free energy of the ion-electron system (eV)
  ---------------------------------------------------
  alpha Z        PSCENC =        63.40493880
  Ewald energy   TEWEN  =     -2091.56620758
  -Hartree energ DENC   =      -958.06123053
  -exchange      EXHF   =         0.00000000
  -V(xc)+E(xc)   XCENC  =         9.03035892
  PAW double counting   =      3039.44811403    -2936.70531464
  entropy T*S    EENTRO =        -0.00000000
  eigenvalues    EBANDS =      -307.28956958
  atomic energy  EATOM  =      3164.89613944
  Solvation  Ediel_sol  =         0.00000000
  ---------------------------------------------------
  free energy    TOTEN  =       -16.84277115 eV

  energy without entropy =      -16.84277115  energy(sigma->0) =      -16.84277115


--------------------------------------------------------------------------------------------------------




--------------------------------------- Iteration      1(   5)  ---------------------------------------


    POTLOK:  cpu time    0.0298: real time    0.0342
    SETDIJ:  cpu time    0.0423: real time    0.0438
    EDDIAG:  cpu time    0.0274: real time    0.0285
  RMM-DIIS:  cpu time    0.0220: real time    0.0223
    ORTHCH:  cpu time    0.0015: real time    0.0019
       DOS:  cpu time    0.0002: real time    0.0002
    --------------------------------------------
      LOOP:  cpu time    0.1232: real time    0.1310

 eigenvalue-minimisations  :     2
 total energy-change (2. order) :-0.5179572E-09  ( 0.0000000E+00)
 number of electron      44.0000000 magnetization      -0.0000000
 augmentation part       -1.4395871 magnetization      -0.0000000

 Free energy of the ion-electron system (eV)
  ---------------------------------------------------
  alpha Z        PSCENC =        63.40493880
  Ewald energy   TEWEN  =     -2091.56620758
  -Hartree energ DENC   =      -958.06127341
  -exchange      EXHF   =         0.00000000
  -V(xc)+E(xc)   XCENC  =         9.03035942
  PAW double counting   =      3039.44888829    -2936.70609262
  entropy T*S    EENTRO =        -0.00000000
  eigenvalues    EBANDS =      -307.28952348
  atomic energy  EATOM  =      3164.89613944
  Solvation  Ediel_sol  =         0.00000000
  ---------------------------------------------------
  free energy    TOTEN  =       -16.84277115 eV

  energy without entropy =      -16.84277115  energy(sigma->0) =      -16.84277115


--------------------------------------------------------------------------------------------------------




 average (electrostatic) potential at core
  the test charge radii are     1.1312  1.1541  1.1875
  (the norm of the test charge is              1.0000)
       1 -50.0265       2 -95.3467       3 -93.4443       4 -93.4443       5 -93.4443
 
 
 
 E-fermi :   1.3474     XC(G=0):  -7.1216     alpha+bet : -7.1272


 spin component 1

 k-point     1 :       0.0000    0.0000    0.0000
  band No.  band energies     occupation 
      1     -20.2548      1.00000
      2     -14.7714      1.00000
      3     -14.7714      1.00000
      4     -14.7202      1.00000
      5     -14.7202      1.00000
      6     -14.7202      1.00000
      7     -10.5432      1.00000
      8      -9.8428      1.00000
      9      -9.8428      1.00000
     10      -7.0269      1.00000
     11      -7.0269      1.00000
     12      -7.0269      1.00000
     13      -5.0188      1.00000
     14      -1.7904      1.00000
     15      -1.7904      1.00000
     16      -1.7904      1.00000
     17       0.2718      1.00000
     18       0.2718      1.00000
     19       0.2718      1.00000
     20       0.3993      1.00000
     21       0.3993      1.00000
     22       0.3993      1.00000
     23       4.4983      0.00000
     24       5.5371      0.00000
     25       5.5371      0.00000
     26       6.0422      0.00000
     27       6.0422      0.00000
     28       6.0422      0.00000
     29       7.2452      0.00000
     30       7.2452      0.00000
     31       7.2452      0.00000
     32       8.2821      0.00000
     33       8.2821      0.00000
     34       8.2821      0.00000
     35      10.1848      0.00000
     36      10.1848      0.00000
     37      10.2706      0.00000
     38      10.2706      0.00000
     39      10.2706      0.00000
     40      11.1457      0.00000

 spin component 2

 k-point     1 :       0.0000    0.0000    0.0000
  band No.  band energies     occupation 
      1     -20.2548      1.00000
      2     -14.7714      1.00000
      3     -14.7714      1.00000
      4     -14.7202      1.00000
      5     -14.7202      1.00000
      6     -14.7202      1.00000
      7     -10.5432      1.00000
      8      -9.8428      1.00000
      9      -9.8428      1.00000
     10      -7.0269      1.00000
     11      -7.0269      1.00000
     12      -7.0269      1.00000
     13      -5.0188      1.00000
     14      -1.7904      1.00000
     15      -1.7904      1.00000
     16      -1.7904      1.00000
     17       0.2718      1.00000
     18       0.2718      1.00000
     19       0.2718      1.00000
     20       0.3993      1.00000
     21       0.3993      1.00000
     22       0.3993      1.00000
     23       4.4983      0.00000
     24       5.5371      0.00000
     25       5.5371      0.00000
     26       6.0422      0.00000
     27       6.0422      0.00000
     28       6.0422      0.00000
     29       7.2452      0.00000
     30       7.2452      0.00000
     31       7.2452      0.00000
     32       8.2821      0.00000
     33       8.2821      0.00000
     34       8.2821      0.00000
     35      10.1848      0.00000
     36      10.1848      0.00000
     37      10.2706      0.00000
     38      10.2706      0.00000
     39      10.2706      0.00000
     40      11.1457      0.00000


--------------------------------------------------------------------------------------------------------


 soft charge-density along one line, spin component           1
         0         1         2         3         4         5         6         7         8         9
 total charge-density along one line
 
 soft charge-density along one line, spin component           2
         0         1         2         3         4         5         6         7         8         9
 total charge-density along one line
 
 pseudopotential strength for first ion, spin component:           1
 18.251  -4.786   0.000   0.000   0.000  -0.000  -0.000  -0.000
 -4.786   1.260  -0.000  -0.000  -0.000   0.000   0.000   0.000
  0.000  -0.000   2.263  -0.000   0.000  -2.754   0.000  -0.000
  0.000  -0.000  -0.000   2.263  -0.000   0.000  -2.754   0.000
  0.000  -0.000   0.000  -0.000   2.263  -0.000   0.000  -2.754
 -0.000   0.000  -2.754   0.000  -0.000   3.314  -0.000   0.000
 -0.000   0.000   0.000  -2.754   0.000  -0.000   3.314  -0.000
 -0.000   0.000  -0.000   0.000  -2.754   0.000  -0.000   3.314
  0.000  -0.000   0.000  -0.000   0.000  -0.000   0.000  -0.000
 -0.000   0.000   0.000   0.000  -0.000  -0.000  -0.000   0.000
  0.000  -0.000  -0.000   0.000  -0.000   0.000  -0.000   0.000
 -0.000   0.000  -0.000   0.000  -0.000   0.000  -0.000   0.000
  0.000  -0.000  -0.000  -0.000  -0.000   0.000   0.000   0.000
 pseudopotential strength for first ion, spin component:           2
 18.251  -4.786   0.000   0.000   0.000  -0.000  -0.000  -0.000
 -4.786   1.260  -0.000  -0.000  -0.000   0.000   0.000   0.000
  0.000  -0.000   2.263   0.000   0.000  -2.754  -0.000  -0.000
  0.000  -0.000   0.000   2.263   0.000  -0.000  -2.754  -0.000
  0.000  -0.000   0.000   0.000   2.263  -0.000  -0.000  -2.754
 -0.000   0.000  -2.754  -0.000  -0.000   3.314   0.000   0.000
 -0.000   0.000  -0.000  -2.754  -0.000   0.000   3.314   0.000
 -0.000   0.000  -0.000  -0.000  -2.754   0.000   0.000   3.314
  0.000  -0.000  -0.000  -0.000  -0.000   0.000   0.000   0.000
  0.000  -0.000   0.000   0.000  -0.000  -0.000  -0.000   0.000
  0.000  -0.000  -0.000  -0.000  -0.000   0.000   0.000   0.000
  0.000  -0.000  -0.000   0.000   0.000   0.000  -0.000  -0.000
 -0.000   0.000  -0.000   0.000   0.000   0.000  -0.000  -0.000
 total augmentation occupancy for first ion, spin component:           1
  2.001  -0.002  -0.000  -0.000   0.000  -0.000  -0.000  -0.000  -0.000   0.000  -0.000  -0.000   0.000
 -0.002   0.002  -0.000  -0.000   0.000   0.000   0.000  -0.000   0.000  -0.000   0.000   0.000  -0.000
 -0.000  -0.000   2.003   0.000  -0.000  -0.006   0.000  -0.000   0.000   0.000  -0.000   0.000  -0.000
 -0.000  -0.000   0.000   2.003  -0.000   0.000  -0.006  -0.000   0.000   0.000   0.000   0.000  -0.000
  0.000   0.000  -0.000  -0.000   2.003  -0.000  -0.000  -0.006   0.000   0.000  -0.000   0.000   0.000
 -0.000   0.000  -0.006   0.000  -0.000   0.006  -0.000   0.000  -0.000  -0.000   0.000   0.000   0.000
 -0.000   0.000   0.000  -0.006  -0.000  -0.000   0.006   0.000  -0.000   0.000  -0.000  -0.000   0.000
 -0.000  -0.000  -0.000  -0.000  -0.006   0.000   0.000   0.006  -0.000  -0.000   0.000  -0.000  -0.000
 -0.000   0.000   0.000   0.000   0.000  -0.000  -0.000  -0.000   0.000   0.000  -0.000   0.000   0.000
  0.000  -0.000   0.000   0.000   0.000  -0.000   0.000  -0.000   0.000   0.000   0.000   0.000   0.000
 -0.000   0.000  -0.000   0.000  -0.000   0.000  -0.000   0.000  -0.000   0.000   0.000   0.000  -0.000
 -0.000   0.000   0.000   0.000   0.000   0.000  -0.000  -0.000   0.000   0.000   0.000   0.000   0.000
  0.000  -0.000  -0.000  -0.000   0.000   0.000   0.000  -0.000   0.000   0.000  -0.000   0.000   0.000
 total augmentation occupancy for first ion, spin component:           2
  0.000   0.000   0.000  -0.000  -0.000   0.000  -0.000  -0.000   0.000  -0.000   0.000  -0.000   0.000
  0.000  -0.000   0.000  -0.000  -0.000  -0.000  -0.000   0.000   0.000   0.000   0.000   0.000  -0.000
  0.000   0.000  -0.000  -0.000   0.000  -0.000  -0.000   0.000   0.000  -0.000  -0.000   0.000  -0.000
 -0.000  -0.000  -0.000  -0.000  -0.000  -0.000  -0.000  -0.000  -0.000   0.000  -0.000  -0.000   0.000
 -0.000  -0.000   0.000  -0.000  -0.000   0.000  -0.000  -0.000  -0.000  -0.000  -0.000   0.000  -0.000
  0.000  -0.000  -0.000  -0.000   0.000   0.000   0.000   0.000   0.000   0.000  -0.000  -0.000   0.000
 -0.000  -0.000  -0.000  -0.000  -0.000   0.000   0.000   0.000   0.000  -0.000   0.000   0.000  -0.000
 -0.000   0.000   0.000  -0.000  -0.000   0.000   0.000   0.000   0.000  -0.000   0.000  -0.000  -0.000
  0.000   0.000   0.000  -0.000  -0.000   0.000   0.000   0.000  -0.000   0.000  -0.000   0.000   0.000
 -0.000   0.000  -0.000   0.000  -0.000   0.000  -0.000  -0.000   0.000  -0.000   0.000   0.000   0.000
  0.000   0.000  -0.000  -0.000  -0.000  -0.000   0.000   0.000  -0.000   0.000   0.000   0.000  -0.000
 -0.000   0.000   0.000  -0.000   0.000  -0.000   0.000  -0.000   0.000   0.000   0.000  -0.000  -0.000
  0.000  -0.000  -0.000   0.000  -0.000   0.000  -0.000  -0.000   0.000   0.000  -0.000  -0.000   0.000


------------------------ aborting loop because EDIFF is reached ----------------------------------------


    CHARGE:  cpu time    0.0526: real time    0.0528
    FORLOC:  cpu time    0.0011: real time    0.0011
    FORNL :  cpu time    0.2350: real time    0.2379
    STRESS:  cpu time    0.7725: real time    0.7890
    FORCOR:  cpu time    0.0260: real time    0.0264
    FORHAR:  cpu time    0.0034: real time    0.0036
    MIXING:  cpu time    0.0008: real time    0.0009
    OFIELD:  cpu time    0.0001: real time    0.0002

 ---------------------------------------------------------------------------------------------

         DFTD3 V3.0 Rev 1        
 IVDW         = 11
 DF pbe       
 parameters
 VDW_S6       =    1.0000
 VDW_S8       =    0.7220
 VDW_SR       =    1.2170
 rs18     =    1.0000
 alpha6   =   14.0000
 alpha8   =   16.0000
 k1-k3    =   16.0000    1.3333   -4.0000
 VDW_RADIUS   =   50.2022 A
 VDW_CNRADIUS =   21.1671 A
 Edisp (eV)   -1.20232

 E6    (eV) :    -0.2944
 E8    (eV) :    -0.9079
 % E8        : 75.51
    FORVDW:  cpu time    0.0177: real time    0.0219

  FORCE on cell =-STRESS in cart. coord.  units (eV):
  Direction    XX          YY          ZZ          XY          YZ          ZX
  --------------------------------------------------------------------------------------
  Alpha Z    63.40494    63.40494    63.40494
  Ewald    -697.18940  -697.18940  -697.18940     0.00000     0.00000     0.00000
  Hartree   319.35379   319.35379   319.35379    -0.00000     0.00000     0.00000
  E(xc)    -182.39804  -182.39804  -182.39804     0.00000     0.00000     0.00000
  Local    -488.05953  -488.05953  -488.05953     0.00000    -0.00000    -0.00000
  n-local   496.68504   496.68504   496.68504     0.00000     0.00000     0.00000
  augment    -0.12971    -0.12971    -0.12971     0.00000    -0.00000    -0.00000
  Kinetic   486.12912   486.12912   486.12912    -0.00000    -0.00000    -0.00000
  Fock        0.00000     0.00000     0.00000     0.00000     0.00000     0.00000
  vdW        -1.09871    -1.09871    -1.09871     0.00000     0.00000     0.00000
  -------------------------------------------------------------------------------------
  Total      -3.30251    -3.30251    -3.30251     0.00000    -0.00000    -0.00000
  in kB     -20.38870   -20.38871   -20.38870     0.00000    -0.00000    -0.00000
  external pressure =      -20.39 kB  Pullay stress =        0.00 kB


 VOLUME and BASIS-vectors are now :
 -----------------------------------------------------------------------------
  energy-cutoff  :      500.00
  volume of cell :      259.52
      direct lattice vectors                 reciprocal lattice vectors
     6.378544795  0.000000000  0.000000000     0.156775571  0.000000000  0.000000000
     0.000000000  6.378544795  0.000000000     0.000000000  0.156775571  0.000000000
     0.000000000  0.000000000  6.378544795     0.000000000  0.000000000  0.156775571

  length of vectors
     6.378544795  6.378544795  6.378544795     0.156775571  0.156775571  0.156775571


 FORCES acting on ions
    electron-ion (+dipol)            ewald-force                    non-local-force                 convergence-correction
 -----------------------------------------------------------------------------------------------
   0.298E-06 0.266E-06 0.262E-06   0.203E-14 -.953E-15 -.230E-14   0.151E-07 -.141E-07 -.231E-07   -.239E-06 -.205E-06 -.180E-06
   0.165E-05 -.457E-06 -.218E-06   -.418E-14 0.687E-14 -.309E-14   -.155E-06 0.126E-06 0.586E-07   -.133E-05 0.316E-06 0.158E-06
   -.132E-06 -.364E-08 -.144E-06   -.211E-14 0.354E-14 0.467E-14   0.932E-07 -.337E-07 0.804E-07   0.146E-07 0.346E-07 0.386E-07
   -.583E-06 -.395E-06 0.495E-07   0.308E-14 -.851E-15 0.227E-15   0.148E-06 0.127E-06 -.227E-07   0.320E-06 0.200E-06 -.175E-07
   0.122E-06 0.108E-06 -.115E-06   0.797E-15 -.906E-14 0.237E-15   -.157E-07 0.122E-07 0.564E-07   -.869E-07 -.981E-07 0.416E-07
 -----------------------------------------------------------------------------------------------
   0.135E-05 -.482E-06 -.165E-06   -.393E-15 -.449E-15 -.261E-15   0.855E-07 0.218E-06 0.150E-06   -.132E-05 0.246E-06 0.408E-07
 
 
 POSITION                                       TOTAL-FORCE (eV/Angst)
 -----------------------------------------------------------------------------------
      0.00000      0.00000      0.00000         0.000000      0.000000      0.000000
      3.18927      3.18927      3.18927         0.000000     -0.000000     -0.000000
      3.18927      3.18927      0.00000        -0.000000      0.000000     -0.000000
      0.00000      3.18927      3.18927        -0.000000     -0.000000      0.000000
      3.18927      0.00000      3.18927        -0.000000      0.000000     -0.000000
 -----------------------------------------------------------------------------------
    total drift:                                0.000000     -0.000000      0.000000


--------------------------------------------------------------------------------------------------------



  FREE ENERGIE OF THE ION-ELECTRON SYSTEM (eV)
  ---------------------------------------------------
  free  energy   TOTEN  =       -18.04509597 eV

  energy  without entropy=      -18.04509597  energy(sigma->0) =      -18.04509597
 


--------------------------------------------------------------------------------------------------------


    POTLOK:  cpu time    0.0724: real time    0.0741


--------------------------------------------------------------------------------------------------------


 writing wavefunctions
     LOOP+:  cpu time    3.0851: real time    3.2052
    4ORBIT:  cpu time    0.0000: real time    0.0000

 total amount of memory used by VASP MPI-rank0    49058. kBytes
=======================================================================

   base      :      30000. kBytes
   nonl-proj :       3399. kBytes
   fftplans  :       3894. kBytes
   grid      :      11395. kBytes
   one-center:        155. kBytes
   wavefun   :        215. kBytes
 
  
  
 General timing and accounting informations for this job:
 ========================================================
  
                  Total CPU time used (sec):        5.436
                            User time (sec):        4.683
                          System time (sec):        0.754
                         Elapsed time (sec):        5.740
  
                   Maximum memory used (kb):       76200.
                   Average memory used (kb):           0.
  
                          Minor page faults:        83805
                          Major page faults:            0
                 Voluntary context switches:          268
